 -0.13709608931068145E-06  0.19612327783745847E-05  0.82134612521986551E-06
  0.92433049156287272E-06  0.21312141519199843E-05  0.89204982992347017E-06
  0.12683357170269080E-05  0.20898286253046560E-05  0.87483554210786567E-06
  0.41099732667620366E+02  0.58633253903313136E-01  0.17600486969852339E+00
  0.41099732667620380E+02  0.59088586602806324E-01  0.17739822272462927E+00
  0.41099732667620401E+02  0.59852684250016081E-01  0.17973642020128988E+00
  0.27932333692487221E+01  0.98826909093218838E-03  0.40420086549176171E-03
  0.27932333692488878E+01  0.91224418158478442E-03  0.37272071172574778E-03
  0.66714437995523852E+01  0.83543716675434990E-02  0.31290934778184991E-02
  0.41071737831994234E+02  0.80372042213664313E-01  0.24489856798891121E+00
  0.41071737831994234E+02  0.77653398431019954E-01  0.23770171702141776E+00
  0.44116284831840410E+02  0.87959250264890189E-02  0.21561713757761704E-01
  0.51030361498594576E+01  0.35107541086043500E-02  0.13117115013942633E-02
  0.51030361498595207E+01  0.34160389074750883E-02  0.12765887976008005E-02
  0.12953500857821384E+02  0.30932396356829265E-01  0.78310739512153556E-02
  0.40961406016648034E+02  0.13194901737053327E+00  0.42859583023892428E+00
  0.40961406016648034E+02  0.13135956102305796E+00  0.42667128746879079E+00
  0.44014228665768989E+02  0.34628735479954650E-02  0.93271709278454438E-02
  0.65923130783661117E+01  0.82795229564955487E-02  0.28164491515116101E-02
  0.65923130783661845E+01  0.81658211111367805E-02  0.27831604090639960E-02
  0.18686707758693817E+02  0.33581763258949096E-02  0.96477829048775712E-03
  0.40826914471099499E+02  0.11321325565549580E+00  0.36693207787451065E+00
  0.40826914471099521E+02  0.11086276483882297E+00  0.35902184027265088E+00
  0.43258276310096477E+02  0.20281391996231118E-01  0.90543582589503277E-01
  0.72949177796101488E+01  0.18096970005488048E-01  0.58127933333171795E-02
  0.72949177796102056E+01  0.16564874928041585E-01  0.53245047884641333E-02
  0.23665628167605572E+02  0.10542829382880257E-01  0.17841272736155438E-02
  0.40847867253061168E+02  0.99147596583542122E-01  0.33298209642356597E+00
  0.40847867253061175E+02  0.96611803583126987E-01  0.32377819560284160E+00
  0.41688381923538486E+02  0.44163226913088846E-02  0.24012900723665447E-01
  0.75650810924244114E+01  0.30472693522555008E-01  0.96656333200535530E-02
  0.75650810924244452E+01  0.28467581729968158E-01  0.90300395737715668E-02
  0.27323415841027078E+02  0.31750673382980883E-01  0.17506910973303193E-02
  0.39873250341360709E+02  0.24984561106283216E-02  0.19570435180283560E-01
  0.41034414033619996E+02  0.73526022091724333E-01  0.26154358733940336E+00
  0.41034414033620010E+02  0.77524084018648201E-01  0.27465435900293272E+00
  0.76469346245982406E+01  0.37243373788531055E+14  0.11974794972480715E+14
  0.76469346245982921E+01  0.38385084494525726E+12  0.12341887161813562E+12
  0.28754351784299775E+02  0.21184049688678494E+12  0.86397603928091297E+10
  0.38996639081948508E+02  0.12042746208817261E+11  0.29527917728833154E+12
  0.41147667311100655E+02  0.58243436896467664E+12  0.18114565602575017E+13
  0.41147667311100669E+02  0.10378074276079452E+13  0.32277337554205933E+13
  0.75650810924244141E+01  0.30452859514780144E-01  0.96593462036184234E-02
  0.75650810924244496E+01  0.28487415737743244E-01  0.90363266902067380E-02
  0.27323415841027089E+02  0.31750673382980717E-01  0.17506910973303078E-02
  0.39873250341360723E+02  0.24984561106283052E-02  0.19570435180283348E-01
  0.41034414033620010E+02  0.76187297326259090E-01  0.27027065874838091E+00
  0.41034414033620010E+02  0.74862808784105658E-01  0.26592728759392664E+00
  0.72949177796101559E+01  0.18055134757926441E-01  0.57994601711289107E-02
  0.72949177796102056E+01  0.16606710175603244E-01  0.53378379506524255E-02
  0.23665628167605576E+02  0.10542829382880257E-01  0.17841272736155444E-02
  0.40847867253061168E+02  0.96544988684351588E-01  0.32353568460073112E+00
  0.40847867253061182E+02  0.99214411482312512E-01  0.33322460742566246E+00
  0.41688381923538500E+02  0.44163226913089167E-02  0.24012900723665766E-01
  0.65923130783661250E+01  0.82728384930718119E-02  0.28144921262706259E-02
  0.65923130783662005E+01  0.81725055745606925E-02  0.27851174343050335E-02
  0.18686707758693814E+02  0.33581763258949075E-02  0.96477829048775810E-03
  0.40826914471099492E+02  0.11142153029049488E+00  0.36090228475474634E+00
  0.40826914471099506E+02  0.11265449020383393E+00  0.36505163339244545E+00
  0.43258276310096477E+02  0.20281391996231142E-01  0.90543582589503249E-01
  0.51030361498594612E+01  0.35071499839435306E-02  0.13103750041753689E-02
  0.51030361498595216E+01  0.34196430321359141E-02  0.12779252948197006E-02
  0.12953500857821350E+02  0.30932396356828783E-01  0.78310739512152446E-02
  0.40961406016648027E+02  0.13179195381381573E+00  0.42808302630725287E+00
  0.40961406016648048E+02  0.13151662457977156E+00  0.42718409140044639E+00
  0.44014228665768997E+02  0.34628735479953518E-02  0.93271709278451281E-02
  0.27932333692487230E+01  0.99939199906306543E-03  0.40880660407521948E-03
  0.27932333692488873E+01  0.90112127345390867E-03  0.36811497314229061E-03
  0.66714437995523008E+01  0.83543716675431399E-02  0.31290934778183742E-02
  0.41071737831994227E+02  0.76747113829052166E-01  0.23530258137292470E+00
  0.41071737831994234E+02  0.81278326815632976E-01  0.24729770363740752E+00
  0.44116284831840396E+02  0.87959250264900719E-02  0.21561713757764337E-01
  0.40345302208223828E+01  0.14716560363197992E-02  0.58114341725795822E-03
  0.40345302208223899E+01  0.14658691211017431E-02  0.57873493536230152E-03
  0.66662003763578994E+01  0.82704910676212468E-02  0.31334752772674761E-02
  0.41097004918639549E+02  0.60348404452280804E-01  0.18753645208624892E+00
  0.41097004918639563E+02  0.61195728997838268E-01  0.19022339488767723E+00
  0.44075059318069776E+02  0.12200375316118199E-01  0.29397046782594635E-01
  0.57383487188169751E+01  0.49922164116268999E-02  0.18308682426750207E-02
  0.58645139289493313E+01  0.50822724381634314E-02  0.18321229243941750E-02
  0.11532845588551947E+02  0.30118684289724328E-01  0.81806207022581314E-02
  0.40968211760613684E+02  0.12494503648552538E+00  0.41504088106666687E+00
  0.41053027192444098E+02  0.75209063966869383E-01  0.24577792219077849E+00
  0.43988808941671437E+02  0.42037017720468655E-02  0.11102838425573181E-01
  0.71388055508678407E+01  0.13136343346289372E-01  0.42357938776469897E-02
  0.73459299754775040E+01  0.17529852860227259E-01  0.57361652810309569E-02
  0.16917195586847942E+02  0.22432025337414336E-02  0.71093040976974030E-03
  0.40770364321473394E+02  0.90086246373590043E-01  0.30465073445988938E+00
  0.40951455133081119E+02  0.13206838886978559E+00  0.44457985865202271E+00
  0.43442029417307054E+02  0.89799052776690369E-02  0.35322042589309412E-01
  0.77458657867160801E+01  0.23229123985233087E-01  0.70406175945780013E-02
  0.84300504455011698E+01  0.34538227985203701E-01  0.10186141476581038E-01
  0.21823680072524109E+02  0.65092539894715043E-02  0.14047185189115805E-02
  0.40580826378889505E+02  0.29103306220220393E-01  0.10312389201450184E+00
  0.40764226620950261E+02  0.83480729618629415E-01  0.29200608080594931E+00
  0.42429706552017663E+02  0.13489665482010102E-01  0.74932328351998909E-01
  0.80015552904716092E+01  0.30009653748492422E-01  0.90354216415538952E-02
  0.89777981837807932E+01  0.55410978043650201E-01  0.15265514543939648E-01
  0.25734401833369425E+02  0.23826165764324961E-01  0.23305938776886797E-02
  0.39591644895490191E+02  0.41991437231532498E-02  0.22757903354660085E-01
  0.40968863355774559E+02  0.11768976610741673E+00  0.42707972958873208E+00
  0.41757930754083368E+02  0.47268494757630010E-02  0.24740816293361875E-01
  0.81286731509100836E+01  0.31521774161781438E-01  0.95303252307999565E-02
  0.91845855581732376E+01  0.64431612801465421E-01  0.17093931005833483E-01
  0.27850840915070712E+02  0.27010860231846037E-01  0.10223632903116741E-02
  0.38591964187781080E+02  0.27680277827364561E-02  0.29815632232570086E-01
  0.41096462586506114E+02  0.55851011234580528E-01  0.19755370985466728E+00
  0.41712553209879061E+02  0.49139242499907573E-02  0.23785677702582022E-01
  0.80828645503217604E+01  0.31048895505434691E-01  0.94371401838413103E-02
  0.91288623725791425E+01  0.61349130841598633E-01  0.16294910416710037E-01
  0.27412959913614252E+02  0.31261287747320392E-01  0.14730771831719756E-02
  0.38780179517633862E+02  0.28740112152927052E-02  0.26017984146734154E-01
  0.40993784312625550E+02  0.10281017639245160E+00  0.36966320273184250E+00
  0.41805265304773449E+02  0.50429969189739066E-02  0.24594780555125331E-01
  0.78152697304724343E+01  0.25149482457558731E-01  0.77882445089830976E-02
  0.89373971561311603E+01  0.55227525231361964E-01  0.14964959066369646E-01
  0.24582522516901403E+02  0.13700353613440993E-01  0.18799763915468175E-02
  0.39823133926769607E+02  0.36151760814752804E-02  0.18208085259528006E-01
  0.40828625941431753E+02  0.10731983654376737E+00  0.36160142783466187E+00
  0.42074319278607653E+02  0.53748138917255319E-02  0.29374340553238260E-01
  0.71635225454342466E+01  0.13652957265702748E-01  0.44969672542913355E-02
  0.86181645482939686E+01  0.41302221325812606E-01  0.11643035172252111E-01
  0.20216489705030181E+02  0.44267357082344045E-02  0.11112541595803198E-02
  0.40567399992575368E+02  0.28571108979646907E-01  0.10096318848236600E+00
  0.40801208708672384E+02  0.11264126885338914E+00  0.36842649735480326E+00
  0.42866400879258904E+02  0.23472719475176537E-01  0.12163207936250461E+00
  0.58234541453867443E+01  0.49976525481610565E-02  0.18192091817482328E-02
  0.77558421165008760E+01  0.23205214735839658E-01  0.72666661413162536E-02
  0.15133807881510373E+02  0.17019257615813756E-02  0.58330674176513067E-03
  0.40892868308449309E+02  0.93402295376033867E-01  0.29916550669910580E+00
  0.41018114452142548E+02  0.90502362779570564E-01  0.30855246072070258E+00
  0.43595665397009270E+02  0.69626445259075853E-02  0.21821180745629866E-01
  0.39171564026263557E+01  0.13920025715200780E-02  0.55029610526367238E-03
  0.58600974605800031E+01  0.51188163902372479E-02  0.18766969342725339E-02
  0.10065725615994676E+02  0.54227480633350665E-01  0.15866163636799550E-01
  0.40991040517849399E+02  0.11312420979443059E+00  0.35846707771873310E+00
  0.41486010734530538E+02  0.43113528961291787E-02  0.15426965978101823E-01
  0.43679665052898017E+02  0.68277438094698703E-02  0.19076105696697977E-01
  0.71495876723873373E+01  0.13480816249443479E-01  0.43451836339635742E-02
  0.71495876723873852E+01  0.13453932522751179E-01  0.43371678608650393E-02
  0.13159291974692747E+02  0.33230069280064396E-01  0.85392860184589740E-02
  0.40823691972834574E+02  0.11092124871937664E+00  0.37056186383436684E+00
  0.40823691972834588E+02  0.11237523658955596E+00  0.37556629622301368E+00
  0.44091599202117749E+02  0.74169522962243871E-02  0.18731442772979081E-01
  0.80667468329085992E+01  0.31416434541766361E-01  0.90815529551102163E-02
  0.85368434922497212E+01  0.38138005462072043E-01  0.10664688530698605E-01
  0.16858633006524808E+02  0.21743736729756000E-02  0.72236290247484306E-03
  0.40622439010980685E+02  0.30919540685552374E-01  0.11493449244953255E+00
  0.40741887218842415E+02  0.64690286889216506E-01  0.22884506461626622E+00
  0.43661799419251111E+02  0.66996996348382288E-02  0.20332919920083771E-01
  0.85094513593976515E+01  0.38325275374911170E-01  0.10371635380442583E-01
  0.10101295438320081E+02  0.57991162653875682E-01  0.13289419772431447E-01
  0.20666988514262481E+02  0.48953017854160303E-02  0.12330335837158258E-02
  0.40432864700888686E+02  0.11207788180133292E-01  0.40696310420730818E-01
  0.40634636787983652E+02  0.32035912860322285E-01  0.12282339586305456E+00
  0.42816634371244007E+02  0.23423182759237497E-01  0.12364136887246835E+00
  0.87601490990607012E+01  0.47872847705943258E-01  0.12821522875541657E-01
  0.11290082812255390E+02  0.39686808430352230E-01  0.80729450353832916E-02
  0.24002384120469365E+02  0.11847563305147860E-01  0.18192197851857870E-02
  0.39221783249771818E+02  0.43692339450000428E-02  0.22558935130300703E-01
  0.40864316122321291E+02  0.83687661368936794E-01  0.31183080987968370E+00
  0.42458340101408957E+02  0.13202642223360053E-01  0.79623794382761640E-01
  0.89510375752227542E+01  0.54633402993881912E-01  0.14572697139527826E-01
  0.11877656373794949E+02  0.28042835884995190E-01  0.56982950633048613E-02
  0.26254023168264400E+02  0.37074428455557522E-01  0.26354190685341718E-02
  0.37984224276888938E+02  0.36851307239328616E-02  0.36896974223983983E-01
  0.40989689096904968E+02  0.10099712302638754E+00  0.38717426327110088E+00
  0.42495400547996525E+02  0.13548954416362986E-01  0.81277429992491240E-01
  0.89588177082989393E+01  0.54620168840480078E-01  0.14642324621989423E-01
  0.11874540250023525E+02  0.28194324586758829E-01  0.56688875319818102E-02
  0.26623716343427738E+02  0.40988677378201097E-01  0.23141630936719514E-02
  0.37660069693518651E+02  0.28683547195424326E-02  0.36480374990062334E-01
  0.40862574847297424E+02  0.85324941082104172E-01  0.31155191416887795E+00
  0.42677464099433664E+02  0.17815768548495561E-01  0.10577878810411248E+00
  0.87475114467406545E+01  0.46753363928659343E-01  0.12969828359874395E-01
  0.11550219498373025E+02  0.33222143602914631E-01  0.65296981256567745E-02
  0.24841212061408218E+02  0.15301415408721049E-01  0.17263852305584540E-02
  0.38277872074658966E+02  0.37752046558782197E-02  0.32800747431087143E-01
  0.40692139703145287E+02  0.46397402498951489E-01  0.16915192375531790E+00
  0.42918007295419841E+02  0.21584371847967295E-01  0.12928516937408072E+00
  0.82607089249344892E+01  0.32469026502769234E-01  0.96986421444256211E-02
  0.11234305370043948E+02  0.41640398344001413E-01  0.81762821384289610E-02
  0.21528210223872065E+02  0.62426722890864053E-02  0.13111912318937923E-02
  0.39352474587463178E+02  0.44727438270325886E-02  0.23144272570977821E-01
  0.40683949501204310E+02  0.45182743625861291E-01  0.15863503507352270E+00
  0.43126453186322522E+02  0.28621988146891496E-01  0.16429559809087413E+00
  0.72386937015772048E+01  0.15713198468179083E-01  0.51847142775812427E-02
  0.10276265232135017E+02  0.51038379117668210E-01  0.11599445649350200E-01
  0.17930435894850181E+02  0.28607588959988200E-02  0.84779553964397982E-03
  0.40479133095548129E+02  0.16185059402026265E-01  0.59313841133926300E-01
  0.40792780846200721E+02  0.10905723570945335E+00  0.35558879713773278E+00
  0.43252561579358726E+02  0.19754468222997486E-01  0.96317088163072828E-01
  0.58234541453867967E+01  0.49976525481611406E-02  0.18192091817482601E-02
  0.77417326184510200E+01  0.22763017738688992E-01  0.71326048298460580E-02
  0.15140066186638114E+02  0.17027445508953573E-02  0.58359386162312634E-03
  0.40892868308449287E+02  0.93402295376024055E-01  0.29916550669907210E+00
  0.41002145426011715E+02  0.10330865732669320E+00  0.35087076656708083E+00
  0.43611019535668120E+02  0.69971589301437084E-02  0.21821281471200157E-01
  0.86739581480188885E+01  0.44900370747447162E-01  0.11572846782452295E-01
  0.86739581480189170E+01  0.44924148622078101E-01  0.11571656384866723E-01
  0.19371093498807173E+02  0.36266665245692354E-02  0.10913914524355544E-02
  0.40479528400683343E+02  0.15242406448168036E-01  0.61467249637228751E-01
  0.40479528400683343E+02  0.15460534197472906E-01  0.62276764625466878E-01
  0.43547714982112289E+02  0.66666649843400531E-02  0.21175385084067844E-01
  0.89519158737217008E+01  0.56363578889926498E-01  0.13692839182457282E-01
  0.96696085114774579E+01  0.64187660066688093E-01  0.14024564701610551E-01
  0.22275807924549728E+02  0.67877042544663528E-02  0.16111702436792132E-02
  0.40386759041771377E+02  0.87937889967786391E-02  0.35484000543047539E-01
  0.40548627593721250E+02  0.23355799925592800E-01  0.97665727484234313E-01
  0.42713901952167838E+02  0.22176979137476752E-01  0.11037447761942838E+00
  0.91723154548743189E+01  0.66144432822472871E-01  0.15650896883638035E-01
  0.11418479930641048E+02  0.37153642372153302E-01  0.68211610731240616E-02
  0.24646058364221915E+02  0.13323723928515092E-01  0.21103883967736191E-02
  0.39232647297437204E+02  0.44058252411288534E-02  0.22570562358539385E-01
  0.40803091415972837E+02  0.99956089246808433E-01  0.39510033337752559E+00
  0.42440677353851726E+02  0.12799214233457736E-01  0.78604068505315261E-01
  0.93838616909334274E+01  0.10277220274023044E+00  0.23976790273125322E-01
  0.12936066313006643E+02  0.35332070406010774E-01  0.58402288134589047E-02
  0.26336100670991247E+02  0.39131119624593091E-01  0.29933327426640835E-02
  0.37555987927792273E+02  0.29696171433780897E-02  0.33811817060970487E-01
  0.40924690898594761E+02  0.11933958508623231E+00  0.48855231807931426E+00
  0.42742833306183257E+02  0.19926179651918365E-01  0.12682698709087722E+00
  0.94253065159998073E+01  0.12003872215490519E+00  0.27957109358198624E-01
  0.13500659758366151E+02  0.34530358245239999E-01  0.53971489408650968E-02
  0.26912760157959436E+02  0.38835536816271082E-01  0.16569137184636472E-02
  0.36701182082042919E+02  0.15659460624359819E-02  0.39198543769573511E-01
  0.40766877390212521E+02  0.79197897016774432E-01  0.31099012515336671E+00
  0.43067985368789074E+02  0.24901079102647054E-01  0.16399705846726137E+00
  0.92892331587678747E+01  0.94477481810226305E-01  0.22560441652300704E-01
  0.13206259682696080E+02  0.39152750913606385E-01  0.61252504202228423E-02
  0.25807290118062848E+02  0.26937436075468287E-01  0.18513553005894575E-02
  0.37007291761083913E+02  0.21483940515542575E-02  0.39261445546623190E-01
  0.40559681551694467E+02  0.24952646240906238E-01  0.99958561974380453E-01
  0.43341564406967251E+02  0.10559664243268707E-01  0.63973040052486510E-01
  0.89882124408746584E+01  0.55233977440221335E-01  0.14623625778527372E-01
  0.12615309022321995E+02  0.30832315515795666E-01  0.52245897952544690E-02
  0.23522195763445914E+02  0.10580146985101849E-01  0.15236617790768360E-02
  0.37983983981784220E+02  0.39024934953463351E-02  0.36021948406542902E-01
  0.40545165537460647E+02  0.24439430061464998E-01  0.93406070896550841E-01
  0.43433217493383125E+02  0.76903650565629082E-02  0.40955119555064277E-01
  0.82607089249346046E+01  0.32469026502770219E-01  0.96986421444257911E-02
  0.11230851921058409E+02  0.41700678962332829E-01  0.81895657432409039E-02
  0.21514983029531631E+02  0.62259425500765953E-02  0.13092384875515654E-02
  0.39357628171999686E+02  0.44744143363474312E-02  0.23162306841729177E-01
  0.40683949501204296E+02  0.45182743625857176E-01  0.15863503507350868E+00
  0.43129250494536471E+02  0.28552404916945020E-01  0.16367947852321998E+00
  0.71635225454343177E+01  0.13652957265704681E-01  0.44969672542919331E-02
  0.85143760843113103E+01  0.37420652938535907E-01  0.10612386130659774E-01
  0.20282883272755058E+02  0.44931191899938942E-02  0.11259177742494087E-02
  0.40391985634956143E+02  0.97018080996514964E-02  0.35315628561076784E-01
  0.40801208708672412E+02  0.11264126885339794E+00  0.36842649735483401E+00
  0.43021146255977399E+02  0.26769235849654068E-01  0.13982694487585126E+00
  0.91112792443191086E+01  0.64342593734313253E-01  0.14619243297355863E-01
  0.91112792443191317E+01  0.64270783050350139E-01  0.14622009975377940E-01
  0.25047447495664098E+02  0.14605106399117643E-01  0.23918684906291403E-02
  0.40635923831498907E+02  0.30115711485888715E-01  0.12899037873561217E+00
  0.40635923831498928E+02  0.30915636487708831E-01  0.13198049872854109E+00
  0.41759763749990363E+02  0.51570434116844201E-02  0.24506010623633563E-01
  0.92504738385741980E+01  0.11277351881889068E+00  0.24669524586183968E-01
  0.99689952308690621E+01  0.65175808679312747E-01  0.13306930628653582E-01
  0.27288095198152352E+02  0.29707353968207801E-01  0.22976017690452062E-02
  0.39520489630120686E+02  0.43647740047855280E-02  0.23422269620928065E-01
  0.40864991281456703E+02  0.77240323394488705E-01  0.32314790834873552E+00
  0.41633960356189625E+02  0.41077468037394446E-02  0.23007596926764930E-01
  0.94178534669663136E+01  0.12104850552991980E+00  0.26798998234019281E-01
  0.11777062256668998E+02  0.29627165968875241E-01  0.52361567537914768E-02
  0.28582676344608569E+02  0.15697179748156390E-01  0.53392196563748233E-03
  0.37419341957019995E+02  0.24195772807553725E-02  0.34086200533008357E-01
  0.40976427255853160E+02  0.10066771318842103E+00  0.43312764324536052E+00
  0.42319007113861012E+02  0.94256694719536353E-02  0.59526758165549525E-01
  0.94865825839612352E+01  0.15602381820206335E+00  0.34201503898897145E-01
  0.13332488982502211E+02  0.38420553391256176E-01  0.57762828026705617E-02
  0.28787180850771524E+02  0.15834855850973800E-01  0.19444088006780703E-03
  0.35991326778253097E+02  0.51952726398923096E-03  0.43913541892938869E-01
  0.40827129384282536E+02  0.95297873982216966E-01  0.38788913741099135E+00
  0.42904650702951180E+02  0.19625908047784486E-01  0.13258381532892474E+00
  0.94446935258002096E+01  0.11511436006203110E+00  0.25932288394439080E-01
  0.13773064508895979E+02  0.48904682947994181E-01  0.69067658271090371E-02
  0.27610897323036699E+02  0.32182117300680553E-01  0.69639679955845585E-03
  0.36034688544035767E+02  0.64044932472113189E-03  0.44450874630446155E-01
  0.40606312759090677E+02  0.26920195147174898E-01  0.11270811815043018E+00
  0.43276676627345502E+02  0.14186949125689628E-01  0.91385981552094014E-01
  0.92892331587678445E+01  0.94477481810223932E-01  0.22560441652300138E-01
  0.13228751539440864E+02  0.39176920397898454E-01  0.61166503565134329E-02
  0.25782031503015521E+02  0.26481162180426131E-01  0.18357517757972145E-02
  0.37006499807694730E+02  0.21478059307809185E-02  0.39265337750154200E-01
  0.40559681551694439E+02  0.24952646240904229E-01  0.99958561974372653E-01
  0.43350413181955879E+02  0.10233220778080390E-01  0.61468928647250926E-01
  0.87475114467406456E+01  0.46753363928658934E-01  0.12969828359874258E-01
  0.11595418273257929E+02  0.32088743940701145E-01  0.63189357239728404E-02
  0.24781878499969203E+02  0.15025692066079564E-01  0.17155139282674162E-02
  0.38272598747434486E+02  0.37635309178632994E-02  0.32923317028411704E-01
  0.40692139703145301E+02  0.46397402498955569E-01  0.16915192375533258E+00
  0.42944815590626895E+02  0.22152977371243710E-01  0.13184918533247078E+00
  0.78152697304726209E+01  0.25149482457564272E-01  0.77882445089847759E-02
  0.89007861059323066E+01  0.54376620968565270E-01  0.14786793481829645E-01
  0.24605577248301039E+02  0.13777253832660655E-01  0.18853206435992095E-02
  0.39822423085705786E+02  0.36356608211725277E-02  0.18181079647886185E-01
  0.40828625941431781E+02  0.10731983654375368E+00  0.36160142783461702E+00
  0.42069276369880868E+02  0.53044417414632936E-02  0.29184160885189311E-01
  0.92545724149971456E+01  0.11586447766532293E+00  0.25139558085787255E-01
  0.92545724149971633E+01  0.11645473318315581E+00  0.25251678998528537E-01
  0.29800860791952729E+02  0.85358606330365287E-02  0.27358132636115588E-03
  0.39089031573017948E+02  0.29260883901277381E-02  0.24561128120048601E-01
  0.41030158276965302E+02  0.69124500965250912E-01  0.30495903787392775E+00
  0.41030158276965302E+02  0.67166081113801915E-01  0.29709007658930947E+00
  0.93186550581752456E+01  0.10200808400925866E+00  0.22432284595931315E-01
  0.10051626835705630E+02  0.62034854359528990E-01  0.12638603465560110E-01
  0.31153725138393071E+02  0.57149942819535110E-02  0.44668327449323400E-04
  0.37349095762923355E+02  0.12832156639354852E-02  0.38517873351064345E-01
  0.41118573462710430E+02  0.30254915011339194E-01  0.13093624087607078E+00
  0.41571349417464972E+02  0.38249183714304641E-02  0.20698668710197890E-01
  0.94158695816282894E+01  0.12094087497161291E+00  0.26480849670679471E-01
  0.11845624043685737E+02  0.29171064439779400E-01  0.51268722306653750E-02
  0.30734672772211397E+02  0.69489291643472463E-02  0.45832502086918324E-05
  0.36054112484771515E+02  0.10765861278275374E-03  0.49088776086709987E-01
  0.41009338807522631E+02  0.80753854184734075E-01  0.35420364982335900E+00
  0.42322132021028736E+02  0.94768978251234936E-02  0.60141078987638680E-01
  0.94865825839612246E+01  0.15602381820207054E+00  0.34201503898898804E-01
  0.13336830397999691E+02  0.38349424352523399E-01  0.57642123349012399E-02
  0.28797005926561308E+02  0.15777201324801933E-01  0.19117884243713832E-03
  0.35987496850211976E+02  0.51339442236870937E-03  0.43802212675158395E-01
  0.40827129384282543E+02  0.95297873982214024E-01  0.38788913741098047E+00
  0.42899920443532096E+02  0.19580207342151584E-01  0.13234903833368505E+00
  0.94253065159998055E+01  0.12003872215490519E+00  0.27957109358198597E-01
  0.13488550295190132E+02  0.34730732901087115E-01  0.54327903905891711E-02
  0.26948382290158513E+02  0.38810164039955464E-01  0.16169253428675691E-02
  0.36693810242995816E+02  0.15491758010722648E-02  0.39184051430537638E-01
  0.40766877390212521E+02  0.79197897016774349E-01  0.31099012515336683E+00
  0.43055784697356557E+02  0.24220885608736566E-01  0.15965443504038285E+00
  0.89588177082989660E+01  0.54620168840480335E-01  0.14642324621989460E-01
  0.11873680815936821E+02  0.28196843328822854E-01  0.56698578248016033E-02
  0.26612589587957601E+02  0.41198476993846787E-01  0.23378384396805980E-02
  0.37661735184278051E+02  0.28731632234284678E-02  0.36500313561171720E-01
  0.40862574847297438E+02  0.85324941082099398E-01  0.31155191416886169E+00
  0.42683172932402307E+02  0.18130381858760959E-01  0.10759795661282127E+00
  0.80828645503218119E+01  0.31048895505435253E-01  0.94371401838414231E-02
  0.91677664943644270E+01  0.62675423518561979E-01  0.16570797602782079E-01
  0.27356277655262787E+02  0.32090241534369436E-01  0.15425601959557500E-02
  0.38765445638413802E+02  0.28712963848695435E-02  0.26264594639632460E-01
  0.40993784312625543E+02  0.10281017639245563E+00  0.36966320273185743E+00
  0.41847525433094376E+02  0.50584590523035499E-02  0.24608562636298226E-01
  0.92649847966119800E+01  0.11078143476098914E+00  0.24261431097783177E-01
  0.92649847966120120E+01  0.11200042980414411E+00  0.24493407132287412E-01
  0.32349498402940625E+02  0.87910387864099295E+01  0.52877647625072146E-29
  0.37205764589577257E+02  0.16034357901242069E-33  0.45718547985011793E-01
  0.41199366162526182E+02  0.73178003406138515E-02  0.31557431985082311E-01
  0.41199366162526189E+02  0.73924127176379344E-02  0.31918212184349613E-01
  0.93186550581752385E+01  0.10200808400925857E+00  0.22432284595931294E-01
  0.10052260129101089E+02  0.62008801526770047E-01  0.12632811868878047E-01
  0.31153492024661777E+02  0.57153859045179995E-02  0.44679396757719754E-04
  0.37349085654041410E+02  0.12831472200332404E-02  0.38518289918523921E-01
  0.41118573462710444E+02  0.30254915011328095E-01  0.13093624087602390E+00
  0.41571380065053255E+02  0.38252444824139176E-02  0.20699446403775475E-01
  0.94178534669663048E+01  0.12104850552991755E+00  0.26798998234018809E-01
  0.11778603594766329E+02  0.29612840931542952E-01  0.52334147315773478E-02
  0.28581542156734969E+02  0.15708650736089777E-01  0.53474741733817554E-03
  0.37420632057644767E+02  0.24219885863091405E-02  0.34080793883110659E-01
  0.40976427255853167E+02  0.10066771318841708E+00  0.43312764324534314E+00
  0.42318203408510023E+02  0.94037235751068121E-02  0.59385309541483383E-01
  0.93838616909334451E+01  0.10277220274023904E+00  0.23976790273127272E-01
  0.12917537505491113E+02  0.35025507805734497E-01  0.58026370116883736E-02
  0.26359480862204549E+02  0.39771819989483335E-01  0.30135968857815257E-02
  0.37549764912959176E+02  0.29504748673321538E-02  0.33753721219760661E-01
  0.40924690898594754E+02  0.11933958508622597E+00  0.48855231807928584E+00
  0.42739492122983123E+02  0.19817023255701137E-01  0.12619320721293514E+00
  0.89510375752227453E+01  0.54633402993881856E-01  0.14572697139527828E-01
  0.11837597324957434E+02  0.28213639809818301E-01  0.57414379194174955E-02
  0.26282077565676744E+02  0.38086857557700700E-01  0.26747654019180726E-02
  0.37975720198965867E+02  0.36711435820593625E-02  0.36978592494459825E-01
  0.40989689096904939E+02  0.10099712302640464E+00  0.38717426327116128E+00
  0.42496837280898220E+02  0.13560455428874022E-01  0.81296767414207438E-01
  0.81286731509100925E+01  0.31521774161781500E-01  0.95303252307999617E-02
  0.92089530947207408E+01  0.69568264268014088E-01  0.18347152258497808E-01
  0.27789629011282681E+02  0.27564224946900365E-01  0.10743680080129081E-02
  0.38581586263111966E+02  0.27775730052581656E-02  0.30009263635527916E-01
  0.41096462586506135E+02  0.55851011234560828E-01  0.19755370985459775E+00
  0.41757581951622996E+02  0.50257415526951026E-02  0.24233906418320589E-01
  0.92504738385741678E+01  0.11277351881886453E+00  0.24669524586178611E-01
  0.99682505382305209E+01  0.65199947494868446E-01  0.13312448853547067E-01
  0.27287513173548909E+02  0.29714444473349901E-01  0.22987356407195392E-02
  0.39520693610310978E+02  0.43647795463899524E-02  0.23420082307714418E-01
  0.40864991281456710E+02  0.77240323394487054E-01  0.32314790834872842E+00
  0.41634326505566868E+02  0.41093210857217543E-02  0.23017853079993249E-01
  0.91723154548744272E+01  0.66144432822483792E-01  0.15650896883640426E-01
  0.11414261528967675E+02  0.37278225043855681E-01  0.68434007474108167E-02
  0.24644314201285368E+02  0.13317991025190349E-01  0.21099535893779240E-02
  0.39230792496431839E+02  0.43995216779126141E-02  0.22563819358907673E-01
  0.40803091415972851E+02  0.99956089246812332E-01  0.39510033337753864E+00
  0.42444539300556663E+02  0.12867793677333010E-01  0.78959728525704057E-01
  0.87601490990607438E+01  0.47872847705945305E-01  0.12821522875542101E-01
  0.11278987468933295E+02  0.39941199564009558E-01  0.81267961814986793E-02
  0.24012082560664407E+02  0.11880326084470894E-01  0.18204647220919563E-02
  0.39218268653660346E+02  0.43578225124654086E-02  0.22544023169292465E-01