  0.00000000000000000E+00  0.00000000000000000E+00  0.00000000000000000E+00
  0.00000000000000000E+00  0.00000000000000000E+00  0.00000000000000000E+00
  0.00000000000000000E+00  0.00000000000000000E+00  0.00000000000000000E+00
  0.41099732667620380E+02  0.47664904842366812E+00  0.92231282837425776E+00
  0.41099732667620387E+02  0.47664904842360950E+00  0.92231282837414585E+00
  0.41099732667620394E+02  0.47664904842355288E+00  0.92231282837403150E+00
  0.27932333692488420E+01  0.47563432400577121E-02  0.30337624625171753E-02
  0.27932333692489140E+01  0.47563432400579064E-02  0.30337624625172985E-02
  0.66714437995523515E+01  0.41064494819360732E-01  0.23918900583412932E-01
  0.41071737831994227E+02  0.61217507897718593E+00  0.11970720823803962E+01
  0.41071737831994234E+02  0.61217507897717993E+00  0.11970720823803784E+01
  0.44116284831840396E+02  0.71442530875693189E-01  0.11248156495910876E+00
  0.51030361498593670E+01  0.16814563897598604E-01  0.10257065564732494E-01
  0.51030361498595251E+01  0.16814563897600780E-01  0.10257065564733776E-01
  0.12953500857821362E+02  0.14933783053884059E+00  0.62156727207425169E-01
  0.40961406016648020E+02  0.10416359837963833E+01  0.20724780231700057E+01
  0.40961406016648034E+02  0.10416359837963300E+01  0.20724780231698969E+01
  0.44014228665768997E+02  0.30571460089585032E-01  0.50092231657769777E-01
  0.65923130783661312E+01  0.39111257231242431E-01  0.22853051310011380E-01
  0.65923130783662200E+01  0.39111257231244784E-01  0.22853051310012713E-01
  0.18686707758693817E+02  0.15661708654768725E-01  0.84039419251106303E-02
  0.40826914471099499E+02  0.91783765047377319E+00  0.17327171753670758E+01
  0.40826914471099499E+02  0.91783765047377319E+00  0.17327171753670758E+01
  0.43258276310096470E+02  0.17420108220678793E+00  0.41827091372974429E+00
  0.72949177796101070E+01  0.82359011383610625E-01  0.46712657406325256E-01
  0.72949177796102154E+01  0.82359011383615663E-01  0.46712657406327872E-01
  0.23665628167605572E+02  0.45227665101772181E-01  0.18057819544892981E-01
  0.40847867253061168E+02  0.81613177239607892E+00  0.15516339262295280E+01
  0.40847867253061189E+02  0.81613177239597134E+00  0.15516339262293359E+01
  0.41688381923538486E+02  0.46287964320790048E-01  0.10497311510634010E+00
  0.75650810924243981E+01  0.13977070701635588E+00  0.78449124873636769E-01
  0.75650810924244434E+01  0.13977070701636005E+00  0.78449124873639003E-01
  0.27323415841027092E+02  0.12234862872879794E+00  0.23703434085043121E-01
  0.39873250341360716E+02  0.34070665588198573E-01  0.75943873790308744E-01
  0.41034414033619996E+02  0.67085962230600493E+00  0.13571214121606803E+01
  0.41034414033620010E+02  0.67085962230595697E+00  0.13571214121605837E+01
  0.76469346245982113E+01  0.21906913444441156E+00  0.12320235351191679E+00
  0.76469346245982441E+01  0.21906913444440498E+00  0.12320235351191301E+00
  0.28754351784299786E+02  0.12849760024831619E+00  0.22227745294837540E-01
  0.38996639081948516E+02  0.52741224117665429E-01  0.16942493127680430E+00
  0.41147667311100655E+02  0.21391573918257623E+00  0.41764955206322657E+00
  0.41147667311100662E+02  0.21391573918256443E+00  0.41764955206320420E+00
  0.40345302208223908E+01  0.71829373285081091E-02  0.45007480625795133E-02
  0.40345302208225293E+01  0.71829373285084760E-02  0.45007480625797302E-02
  0.66662003763579367E+01  0.40947029657292966E-01  0.23855360452744164E-01
  0.41097004918639549E+02  0.49762034273872907E+00  0.96353367471357609E+00
  0.41097004918639563E+02  0.49762034273862782E+00  0.96353367471337326E+00
  0.44075059318069776E+02  0.88799784466008905E-01  0.13926654757253562E+00
  0.57383487188169751E+01  0.23789699642271865E-01  0.14356862089110647E-01
  0.58645139289493171E+01  0.24736374346217831E-01  0.14886934762136225E-01
  0.11532845588551936E+02  0.14787297633534585E+00  0.64374500676625701E-01
  0.40968211760613698E+02  0.10122833441135570E+01  0.20126910305322268E+01
  0.41053027192444105E+02  0.60296347736330114E+00  0.12038032374592749E+01
  0.43988808941671437E+02  0.33895994215154275E-01  0.55587750021684285E-01
  0.71388055508678736E+01  0.61917643336473351E-01  0.35368131202158107E-01
  0.73459299754775236E+01  0.82105581977516259E-01  0.46466516176462407E-01
  0.16917195586847946E+02  0.10457512216963158E-01  0.59056350425457666E-02
  0.40770364321473387E+02  0.73429384940722997E+00  0.13982209289213048E+01
  0.40951455133081112E+02  0.10689021540067931E+01  0.21280557324218230E+01
  0.43442029417307054E+02  0.76179580260601051E-01  0.16357792991603193E+00
  0.77458657867160303E+01  0.10754923360443176E+00  0.59586041550840893E-01
  0.84300504455011485E+01  0.16159006264258780E+00  0.86269753700887825E-01
  0.21823680072524116E+02  0.28654884494398319E-01  0.13346937462872100E-01
  0.40580826378889498E+02  0.24168970467558767E+00  0.47776368458953583E+00
  0.40764226620950275E+02  0.69320779356167739E+00  0.13225767947106462E+01
  0.42429706552017656E+02  0.13548306655507561E+00  0.33024172321688028E+00
  0.80015552904716056E+01  0.14084113248316979E+00  0.77344840502441531E-01
  0.89777981837807541E+01  0.25445499402099458E+00  0.12997806650630225E+00
  0.25734401833369432E+02  0.96101791937956524E-01  0.28049708435270611E-01
  0.39591644895490191E+02  0.43477107069261695E-01  0.97700887167154096E-01
  0.40968863355774559E+02  0.10091506001110244E+01  0.20063336573209472E+01
  0.41757930754083368E+02  0.47660634363503700E-01  0.10878284221256752E+00
  0.81286731509100161E+01  0.14850609512995042E+00  0.81107509129557762E-01
  0.91845855581732767E+01  0.29790400461931693E+00  0.14713056629198648E+00
  0.27850840915070687E+02  0.98996406087067002E-01  0.16631745408753690E-01
  0.38591964187781066E+02  0.38762949885153601E-01  0.11235091511135466E+00
  0.41096462586506114E+02  0.50147767950866295E+00  0.97121768649791873E+00
  0.41712553209879054E+02  0.46950551721040561E-01  0.10671355233277333E+00
  0.80828645503217604E+01  0.14658579615724102E+00  0.80236770813246219E-01
  0.91288623725791354E+01  0.28246313099306319E+00  0.14057379121440436E+00
  0.27412959913614252E+02  0.11750115530662475E+00  0.22242698018743880E-01
  0.38780179517633869E+02  0.36325526292867630E-01  0.99919075811811420E-01
  0.40993784312625550E+02  0.88240404163427166E+00  0.17568816444554476E+01
  0.41805265304773449E+02  0.47733536791462312E-01  0.10943281224845362E+00
  0.78152697304724450E+01  0.11791685602221541E+00  0.65168383190837731E-01
  0.89373971561311887E+01  0.25212374371563256E+00  0.12931645956623827E+00
  0.24582522516901388E+02  0.56540262426420414E-01  0.20697609066422869E-01
  0.39823133926769607E+02  0.35686106935713641E-01  0.79844330045731493E-01
  0.40828625941431746E+02  0.91142485850389277E+00  0.17212996555588997E+01
  0.42074319278607653E+02  0.52630728757415694E-01  0.12518298757911359E+00
  0.71635225454342857E+01  0.65018438264031447E-01  0.37094716966413949E-01
  0.86181645482939739E+01  0.19038971090710494E+00  0.10028860862977927E+00
  0.20216489705030195E+02  0.19696952905684597E-01  0.99570594049032107E-02
  0.40567399992575368E+02  0.23645651738722101E+00  0.46799664124372659E+00
  0.40801208708672391E+02  0.92619151482329787E+00  0.17466210949037446E+01
  0.42866400879258904E+02  0.21713262468156572E+00  0.54267783103858358E+00
  0.58234541453867719E+01  0.24441284969821658E-01  0.14723522227812338E-01
  0.77558421165008919E+01  0.10900397735827773E+00  0.60368885722813022E-01
  0.15133807881510393E+02  0.82413216621208835E-02  0.48325262855010561E-02
  0.40892868308449302E+02  0.74665497045605933E+00  0.14443392275822600E+01
  0.41018114452142548E+02  0.73655078449030842E+00  0.14775296562682076E+01
  0.43595665397009284E+02  0.57360514047316048E-01  0.10184762511874254E+00
  0.39171564026263774E+01  0.68854724593524859E-02  0.43247768012363583E-02
  0.58600974605799800E+01  0.24703838486389438E-01  0.14868984204472002E-01
  0.10065725615994685E+02  0.27107707121857355E+00  0.12557972409949072E+00
  0.40991040517849399E+02  0.89708917076329431E+00  0.17851119605004395E+01
  0.41486010734530538E+02  0.33934326421033160E-01  0.74828973914273719E-01
  0.43679665052898009E+02  0.53037953524262736E-01  0.92562794263445325E-01
  0.71495876723873302E+01  0.63213871374800390E-01  0.36089631014842402E-01
  0.71495876723874003E+01  0.63213871374809175E-01  0.36089631014847322E-01
  0.13159291974692749E+02  0.16228081889350121E+00  0.66420297127045211E-01
  0.40823691972834560E+02  0.92816879926034701E+00  0.17511078324100917E+01
  0.40823691972834574E+02  0.92816879926030593E+00  0.17511078324100244E+01
  0.44091599202117749E+02  0.59916863750760628E-01  0.94906226975911445E-01
  0.80667468329085956E+01  0.14569988495500580E+00  0.79808004988588616E-01
  0.85368434922496679E+01  0.17621618087061008E+00  0.93304044140733997E-01
  0.16858633006524773E+02  0.10343730099527366E-01  0.58512570656889581E-02
  0.40622439010980692E+02  0.27427077045317649E+00  0.53688274826968763E+00
  0.40741887218842415E+02  0.56588940573107593E+00  0.10850801965298804E+01
  0.43661799419251118E+02  0.54916692388326908E-01  0.96137152129802311E-01
  0.85094513593976711E+01  0.17194840038870185E+00  0.91221067435634115E-01
  0.10101295438320106E+02  0.26429133499684199E+00  0.12226204231471208E+00
  0.20666988514262481E+02  0.22164991871477493E-01  0.10936439392570663E-01
  0.40432864700888686E+02  0.97906665919620953E-01  0.19190280169619994E+00
  0.40634636787983652E+02  0.29045954491918924E+00  0.56643642044048159E+00
  0.42816634371244007E+02  0.21905296913870417E+00  0.54540489066959941E+00
  0.87601490990607083E+01  0.21871209358648350E+00  0.11411270164813238E+00
  0.11290082812255370E+02  0.17745949177447196E+00  0.76542121292372742E-01
  0.24002384120469365E+02  0.49882340581891900E-01  0.19331593876756190E-01
  0.39221783249771818E+02  0.42519088613456248E-01  0.98822345783206353E-01
  0.40864316122321291E+02  0.74959505368674317E+00  0.14336692541606084E+01
  0.42458340101408957E+02  0.14024460748170028E+00  0.34174856363249312E+00
  0.89510375752227791E+01  0.25299302458198153E+00  0.12959548214029787E+00
  0.11877656373794949E+02  0.12420333557275950E+00  0.54529187920488956E-01
  0.26254023168264396E+02  0.14324651019542461E+00  0.37368765380403186E-01
  0.37984224276888931E+02  0.46856172731249326E-01  0.14573387194150153E+00
  0.40989689096904947E+02  0.90412639435577358E+00  0.17986814798326232E+01
  0.42495400547996525E+02  0.14262974501280937E+00  0.34746273919201215E+00
  0.89588177082989429E+01  0.25341120016253360E+00  0.12971077928225921E+00
  0.11874540250023514E+02  0.12425781825192808E+00  0.54554976226806502E-01
  0.26623716343427731E+02  0.14985300568743373E+00  0.36251273530174669E-01
  0.37660069693518651E+02  0.41021882052355796E-01  0.13843568651021174E+00
  0.40862574847297417E+02  0.75473245467708572E+00  0.14426333312307178E+01
  0.42677464099433671E+02  0.18150758261922142E+00  0.44578394161954543E+00
  0.87475114467406527E+01  0.21592807306927361E+00  0.11277868363180163E+00
  0.11550219498373044E+02  0.14579310778844670E+00  0.63526915859071720E-01
  0.24841212061408214E+02  0.60512660679719936E-01  0.21381134197329118E-01
  0.38277872074658958E+02  0.44554776863219077E-01  0.13302789094311629E+00
  0.40692139703145315E+02  0.40055977850508967E+00  0.77122722307634473E+00
  0.42918007295419841E+02  0.22019454545226122E+00  0.55195873560144570E+00
  0.82607089249344607E+01  0.15125274943858191E+00  0.81909242813493072E-01
  0.11234305370043948E+02  0.18242906483652069E+00  0.78683976871583253E-01
  0.21528210223872069E+02  0.27242351357403997E-01  0.12874594721431288E-01
  0.39352474587463178E+02  0.44892795460837978E-01  0.10220211248440111E+00
  0.40683949501204317E+02  0.38294356054728873E+00  0.73785592120161692E+00
  0.43126453186322522E+02  0.28131016640951600E+00  0.70843373314526026E+00
  0.72386937015771995E+01  0.76471974660149239E-01  0.43475176143740989E-01
  0.10276265232135021E+02  0.22903364385667555E+00  0.10530606509810678E+00
  0.17930435894850181E+02  0.13170089848592756E-01  0.72128156575881220E-02
  0.40479133095548136E+02  0.13949301051626123E+00  0.27590778924941550E+00
  0.40792780846200728E+02  0.88794784209576738E+00  0.16775047132208893E+01
  0.43252561579358741E+02  0.18001658223638350E+00  0.43314559145202625E+00
  0.86739581480189027E+01  0.20086240232507499E+00  0.10545519898778341E+00
  0.86739581480189187E+01  0.20086240232507763E+00  0.10545519898778496E+00
  0.19371093498807166E+02  0.17110586793273368E-01  0.89916154838630066E-02
  0.40479528400683343E+02  0.13989432790538595E+00  0.27671197299594136E+00
  0.40479528400683343E+02  0.13989432790538595E+00  0.27671197299594136E+00
  0.43547714982112296E+02  0.54924461764061315E-01  0.99905315778920728E-01
  0.89519158737217168E+01  0.25304197398428008E+00  0.12960960295387933E+00
  0.96696085114774224E+01  0.28232372184824783E+00  0.13404548072690539E+00
  0.22275807924549731E+02  0.31023119229785377E-01  0.14069308726798749E-01
  0.40386759041771377E+02  0.84524769526763327E-01  0.16548351636085257E+00
  0.40548627593721235E+02  0.22461256445438971E+00  0.44476647879932940E+00
  0.42713901952167838E+02  0.20042995910751707E+00  0.49425720014305047E+00
  0.91723154548743331E+01  0.29097053473392998E+00  0.14403681633235696E+00
  0.11418479930641086E+02  0.16241028317422829E+00  0.70298909482639435E-01
  0.24646058364221915E+02  0.57403163678687689E-01  0.20848781621089010E-01
  0.39232647297437204E+02  0.42767925141803359E-01  0.99175620833434702E-01
  0.40803091415972851E+02  0.93188092159845437E+00  0.17569289268140169E+01
  0.42440677353851733E+02  0.13762646155945002E+00  0.33543049495181471E+00
  0.93838616909334309E+01  0.45321976685644333E+00  0.21819863580469168E+00
  0.12936066313006625E+02  0.14805977846779605E+00  0.61713075190841959E-01
  0.26336100670991254E+02  0.15333497615477054E+00  0.39247216097497400E-01
  0.37555987927792273E+02  0.37894068197177944E-01  0.13239792005161169E+00
  0.40924690898594768E+02  0.10827267466048884E+01  0.21508848277604975E+01
  0.42742833306183250E+02  0.21201884624528630E+00  0.52443436625390749E+00
  0.94253065159997860E+01  0.55640006682199594E+00  0.26590360159862741E+00
  0.13500659758366133E+02  0.14328995998486174E+00  0.58111754047728788E-01
  0.26912760157959422E+02  0.13724019748515867E+00  0.30148801301482137E-01
  0.36701182082042919E+02  0.28492302376946697E-01  0.14077824999415539E+00
  0.40766877390212514E+02  0.71063891257502287E+00  0.13547350662133610E+01
  0.43067985368789074E+02  0.26986305170080382E+00  0.67889083502577863E+00
  0.92892331587678818E+01  0.43411109584695279E+00  0.20924226768521376E+00
  0.13206259682696070E+02  0.16350035145525549E+00  0.66707351586209315E-01
  0.25807290118062848E+02  0.10134238160212003E+00  0.29117968047551328E-01
  0.37007291761083920E+02  0.33811088608105978E-01  0.14517670723927259E+00
  0.40559681551694467E+02  0.23271035793259845E+00  0.46073090746405021E+00
  0.43341564406967258E+02  0.11320327461877425E+00  0.26490725933692399E+00
  0.89882124408746140E+01  0.25522724965459748E+00  0.13020285295087883E+00
  0.12615309022321988E+02  0.12871656057054739E+00  0.54941056068400183E-01
  0.23522195763445904E+02  0.43079563968728599E-01  0.17440117658714348E-01
  0.37983983981784220E+02  0.46855446301989290E-01  0.14573849812208856E+00
  0.40545165537460626E+02  0.22124019428471747E+00  0.43809185719342003E+00
  0.43433217493383118E+02  0.79375069987784999E-01  0.17237122546536612E+00
  0.91112792443191228E+01  0.28086909496422513E+00  0.14007484270494452E+00
  0.91112792443191317E+01  0.28086909496422618E+00  0.14007484270494497E+00
  0.25047447495664098E+02  0.64864076252214131E-01  0.22112423040999314E-01
  0.40635923831498907E+02  0.29235944122283825E+00  0.56991470092645302E+00
  0.40635923831498928E+02  0.29235944122287016E+00  0.56991470092651120E+00
  0.41759763749990363E+02  0.47676001421787878E-01  0.10883588919454781E+00
  0.92504738385741909E+01  0.53038332944622657E+00  0.25290361564779507E+00
  0.99689952308690319E+01  0.28687894206772518E+00  0.13348765114012670E+00
  0.27288095198152345E+02  0.12435889058934529E+00  0.24320574489115072E-01
  0.39520489630120693E+02  0.44805813031600777E-01  0.10085992232411357E+00
  0.40864991281456703E+02  0.74775165706004232E+00  0.14304594869980978E+01
  0.41633960356189625E+02  0.44022586078625074E-01  0.99286272651551571E-01
  0.94178534669663314E+01  0.55061493562267561E+00  0.26323861150577404E+00
  0.11777062256669002E+02  0.13976652370632237E+00  0.60330887652087370E-01
  0.28582676344608569E+02  0.58689060956351145E-01  0.80934187244307929E-02
  0.37419341957019995E+02  0.34946245088913787E-01  0.12880986296997318E+00
  0.40976427255853189E+02  0.97129695367270596E+00  0.19301961766757272E+01
  0.42319007113861012E+02  0.10175189333179002E+00  0.24791707217074849E+00
  0.94865825839612263E+01  0.66382552369172365E+00  0.31394415246439594E+00
  0.13332488982502204E+02  0.15979706654984921E+00  0.64829583426013151E-01
  0.28787180850771520E+02  0.52412611956886901E-01  0.68479355933062491E-02
  0.35991326778253097E+02  0.18317021721688861E-01  0.14419888286453400E+00
  0.40827129384282536E+02  0.91706626346563236E+00  0.17313437847288649E+01
  0.42904650702951180E+02  0.21871215621919174E+00  0.54788851884307121E+00
  0.94446935258001883E+01  0.52150089401435329E+00  0.24951342813101426E+00
  0.13773064508895963E+02  0.19774966554599532E+00  0.78000259025363769E-01
  0.27610897323036699E+02  0.10839225274497079E+00  0.19531353304442688E-01
  0.36034688544035774E+02  0.19126411796003887E-01  0.14855014389809457E+00
  0.40606312759090692E+02  0.25755700018974331E+00  0.50647372480839359E+00
  0.43276676627345495E+02  0.15696905555825785E+00  0.37496526005614961E+00
  0.92545724149971580E+01  0.56204310584344896E+00  0.26735939574010481E+00
  0.92545724149971882E+01  0.56204310584365214E+00  0.26735939574019713E+00
  0.29800860791952722E+02  0.32968964633182031E-01  0.36758147479626110E-02
  0.39089031573017948E+02  0.39314667420227808E-01  0.94865063893722665E-01
  0.41030158276965302E+02  0.68509955874057715E+00  0.13835802626108717E+01
  0.41030158276965309E+02  0.68509955874055295E+00  0.13835802626108318E+01
  0.93186550581752456E+01  0.45503564002278335E+00  0.21874281597818809E+00
  0.10051626835705630E+02  0.27365827297824752E+00  0.12685016474882577E+00
  0.31153725138393071E+02  0.19081341007029632E-01  0.13205794949653420E-02
  0.37349095762923355E+02  0.34288690116679975E-01  0.13006296641618553E+00
  0.41118573462710415E+02  0.29690393479669841E+00  0.58457927732328896E+00
  0.41571349417464972E+02  0.40203773721442404E-01  0.89995873525274411E-01
  0.94158695816282947E+01  0.54751528928890447E+00  0.26180466910968853E+00
  0.11845624043685728E+02  0.12486768087991401E+00  0.54836229107786086E-01
  0.30734672772211390E+02  0.21013663012814904E-01  0.17946093772577632E-02
  0.36054112484771515E+02  0.19437903109578634E-01  0.14990873487260437E+00
  0.41009338807522624E+02  0.78963044746391708E+00  0.15788600917106004E+01
  0.42322132021028736E+02  0.10273779507149620E+00  0.25033845493158141E+00
  0.92649847966119978E+01  0.58057209447842439E+00  0.27592800665504941E+00
  0.92649847966120262E+01  0.58057209447830693E+00  0.27592800665499723E+00
  0.32349498402940625E+02  0.70724680660053690E-01  0.21776131389940209E-03
  0.37205764589577257E+02  0.34233770347115597E-01  0.20538212630755096E+00
  0.41199366162526189E+02  0.11314344949247956E+00  0.23238271291287285E+00
  0.41199366162526196E+02  0.11314344949246057E+00  0.23238271291283438E+00
  0.67217787776139106E+01  0.42164254629343603E-01  0.24510729946465366E-01
  0.83173476619290128E+01  0.15309216398830258E+00  0.82529004083049196E-01
  0.14802729451505812E+02  0.89374815321359626E-02  0.50645438753883758E-02
  0.40807376150381089E+02  0.94077411819606682E+00  0.17731000382195725E+01
  0.41006098498097614E+02  0.80998669634926213E+00  0.16179552778377186E+01
  0.43651146547249027E+02  0.55872582937786526E-01  0.97990685612026243E-01
  0.78856632372339250E+01  0.12776983761326197E+00  0.70448550556966208E-01
  0.97229902730457489E+01  0.29040724816986585E+00  0.13727545998923768E+00
  0.18877291350795417E+02  0.16143533591564705E-01  0.86175712340845045E-02
  0.40425544829675843E+02  0.93807058692596021E-01  0.18365208560620236E+00
  0.40841818051904610E+02  0.84761476751695930E+00  0.16077104494781467E+01
  0.43105759315868347E+02  0.28552518575616986E+00  0.72004741148563567E+00
  0.85190249204587030E+01  0.17340730015096323E+00  0.91931666477220161E-01
  0.10496292915902821E+02  0.19643965571096375E+00  0.89388684231153884E-01
  0.22845509088184180E+02  0.35104437982378882E-01  0.15215668091762467E-01
  0.39523097180126655E+02  0.44770505742791324E-01  0.10077209050891757E+00
  0.40797412462900972E+02  0.91142284778807436E+00  0.17198986894937134E+01
  0.42658151748802219E+02  0.17161217685982019E+00  0.42063426651501135E+00
  0.88110596040668963E+01  0.23047963275906375E+00  0.11968133557530239E+00
  0.10975709439888343E+02  0.19070907984772684E+00  0.83239335999520506E-01
  0.25852196120710563E+02  0.10466361201760781E+00  0.29793445237805333E-01
  0.38405183754239005E+02  0.42326763475630219E-01  0.12522762861813763E+00
  0.40925347056331930E+02  0.10878908175371751E+01  0.21617932625425116E+01
  0.42431070038995458E+02  0.13577040559496567E+00  0.33093770174319520E+00
  0.89222262019018768E+01  0.25084014523033621E+00  0.12883840083373779E+00
  0.11148412961414953E+02  0.18766371248226332E+00  0.81096022034826992E-01
  0.27009557967508769E+02  0.13627657665746046E+00  0.28933444588574646E-01
  0.37865856581580417E+02  0.45832420437647819E-01  0.14628311675662847E+00
  0.41008910172043315E+02  0.79232421553353782E+00  0.15840297200023823E+01
  0.42380948113649318E+02  0.12200566937775409E+00  0.29747472349458304E+00
  0.88638123439415999E+01  0.24206789966186393E+00  0.12503228784850057E+00
  0.96103376368172615E+01  0.27234374024366786E+00  0.13002972124055057E+00
  0.19764279906400873E+02  0.18005192592508715E-01  0.93089863524581252E-02
  0.40303321252457629E+02  0.72929403261935005E-01  0.14435261377577890E+00
  0.40743970182562641E+02  0.57628366126949171E+00  0.11046308829818481E+01
  0.43143679950133524E+02  0.27884129668645924E+00  0.70237393677825455E+00
  0.93670355340885134E+01  0.42168531418616695E+00  0.20358232540132767E+00
  0.11021428536055963E+02  0.19066552783094018E+00  0.82944710800472859E-01
  0.22620014277849599E+02  0.33324551605406628E-01  0.14729544029261578E-01
  0.39471768953720321E+02  0.45271531821708878E-01  0.10211807440506060E+00
  0.40823545661907779E+02  0.92858132511888125E+00  0.17518420487206636E+01
  0.42730863235237720E+02  0.20780980824798373E+00  0.51339243810153434E+00
  0.96112329751847394E+01  0.27247480393645301E+00  0.13008055762647253E+00
  0.12348811549965410E+02  0.12594913674412878E+00  0.54495375632220684E-01
  0.25038833345390739E+02  0.64653196706698113E-01  0.22076715188019562E-01
  0.38070472971205227E+02  0.46794615453175502E-01  0.14328069835612972E+00
  0.40937099574478246E+02  0.11027736298649855E+01  0.21960776510313549E+01
  0.42752800828816603E+02  0.21478052986054527E+00  0.53178740361222565E+00
  0.97589850481730060E+01  0.29415937867623804E+00  0.13866682393645877E+00
  0.12989806471483712E+02  0.15197501721745268E+00  0.63063622812218487E-01
  0.26423723791805557E+02  0.15961785770972603E+00  0.40136714944051986E-01
  0.37078068854002915E+02  0.34238210543438202E-01  0.14335692674718128E+00
  0.40939609737261868E+02  0.10959017545859351E+01  0.21823835246374053E+01
  0.42882534209204778E+02  0.21735899308878520E+00  0.54381547725523283E+00
  0.97020941450934863E+01  0.28753575814536564E+00  0.13614582703752923E+00
  0.12840288217725989E+02  0.14119082005899955E+00  0.59300087156070887E-01
  0.26052287390205702E+02  0.12023935012929975E+00  0.32883660618434112E-01
  0.37140358724225450E+02  0.34326587050389878E-01  0.14069612578756216E+00
  0.40815431780645831E+02  0.94322220928782285E+00  0.17778090411738987E+01
  0.43035259633978292E+02  0.25310967822673558E+00  0.63557886250892637E+00
  0.94558265383383553E+01  0.48429031311719400E+00  0.23194835200082004E+00
  0.12251025121670155E+02  0.12577060086135899E+00  0.54621952879154410E-01
  0.24005422452428352E+02  0.49919293389537919E-01  0.19340919298311582E-01
  0.38049311039746463E+02  0.46865912699364479E-01  0.14400951342933965E+00
  0.40725077588790576E+02  0.49334444139534916E+00  0.94800616017727402E+00
  0.43156931154643637E+02  0.29061529813435516E+00  0.73603891894709905E+00
  0.88900431296836953E+01  0.24673359685195062E+00  0.12711392321108750E+00
  0.11418154077456256E+02  0.16245204818904496E+00  0.70315994395331261E-01
  0.21245262614619921E+02  0.25732360052790899E-01  0.12324728878885808E-01
  0.39323953647134125E+02  0.44512430610480262E-01  0.10167804025867626E+00
  0.40756913827598105E+02  0.64770814819514488E+00  0.12382087319553787E+01
  0.43123133553796045E+02  0.28240882293272157E+00  0.71139622570860384E+00
  0.97084749562566994E+01  0.28846346176748688E+00  0.13651448402709676E+00
  0.99987072237106993E+01  0.28258063413792545E+00  0.13129645114098890E+00
  0.24723703339491703E+02  0.58545398540928419E-01  0.21045843607621694E-01
  0.39681349383669257E+02  0.40864936596067332E-01  0.91730230978086247E-01
  0.40820715567119407E+02  0.93554045862170043E+00  0.17642158066209643E+01
  0.42233422538179774E+02  0.78016297056921535E-01  0.18927330842213033E+00
  0.99672278464913546E+01  0.28711593840278171E+00  0.13360978468627213E+00
  0.11699019681393670E+02  0.13170761669996403E+00  0.57750364000222203E-01
  0.26520515727447641E+02  0.15814612981557200E+00  0.39076685057464956E-01
  0.38017116553061761E+02  0.46904182657940580E-01  0.14496217908748399E+00
  0.40987107287546941E+02  0.91744586498877367E+00  0.18244357642196425E+01
  0.42487124022676504E+02  0.14238905811317062E+00  0.34689261951780176E+00
  0.10109038523663408E+02  0.26276917423604279E+00  0.12152171564444439E+00
  0.13295268642211584E+02  0.16204280858119932E+00  0.65816404095574196E-01
  0.27521937868790939E+02  0.11221131622482229E+00  0.20671742765404223E-01
  0.36444498785746461E+02  0.23445753560195556E-01  0.13809708179742441E+00
  0.40953173596993018E+02  0.10653671312704407E+01  0.21208854036653286E+01
  0.42899288009577077E+02  0.21826317623800970E+00  0.54660899539740493E+00
  0.10100866354898864E+02  0.26437231791379939E+00  0.12230167878813711E+00
  0.13792669311155059E+02  0.19141543117802334E+00  0.75679681314482203E-01
  0.27303444157659083E+02  0.12347757402540140E+00  0.24049017240199096E-01
  0.36017698205505972E+02  0.18828505100176238E-01  0.14706060017076009E+00
  0.40781440825916199E+02  0.81317786585542595E+00  0.15421618781183712E+01
  0.43197173646732310E+02  0.27296730581301298E+00  0.68748018235550379E+00
  0.99398382702121335E+01  0.29046848029847699E+00  0.13536236414006503E+00
  0.13289528303639917E+02  0.16230261881903993E+00  0.65936269242295897E-01
  0.25774754945156847E+02  0.98982361825320123E-01  0.28637151565884998E-01
  0.36782575148292928E+02  0.30247315627503060E-01  0.14300207633775217E+00
  0.40682325436544687E+02  0.37954001401183368E+00  0.73143889198118517E+00
  0.43328557913096837E+02  0.11968858061465601E+00  0.28170114204907515E+00
  0.98457755982769779E+01  0.29686844026128861E+00  0.13910881975879927E+00
  0.10310211217616152E+02  0.22267119807120273E+00  0.10225517926675699E+00
  0.29113790669318615E+02  0.46350603500378139E-01  0.54435173066281640E-02
  0.37980312936837912E+02  0.46843674642097252E-01  0.14580747356140622E+00
  0.41067767830697598E+02  0.61255703243971693E+00  0.12010977268501242E+01
  0.41853069538671917E+02  0.47421417972691601E-01  0.10925125140866217E+00
  0.10085000125207051E+02  0.26743834650428933E+00  0.12379776271782801E+00
  0.12038377857899746E+02  0.12381179836101831E+00  0.54163508749874377E-01
  0.29753332902754988E+02  0.34031809628309283E-01  0.37906717820152288E-02
  0.36190231865270292E+02  0.20923972982460765E-01  0.15026525435140878E+00
  0.41064715407094447E+02  0.60939513287698110E+00  0.11984426579188212E+01
  0.42452637992549846E+02  0.13951177445498611E+00  0.33998401687498103E+00
  0.10168796384473238E+02  0.25065631124711801E+00  0.11567091382247606E+00
  0.13548538896888193E+02  0.14087497519038422E+00  0.57135595001420236E-01
  0.28979853079210407E+02  0.48403510019815375E-01  0.59089232920322221E-02
  0.35434878816148441E+02  0.73743221551025567E-02  0.10743509130565171E+00
  0.40899059382388288E+02  0.77494531131590749E+00  0.15051841985571077E+01
  0.42966989915306094E+02  0.23013402477234385E+00  0.57777628143056992E+00
  0.98114361822595146E+01  0.29684500270243402E+00  0.13941294252795527E+00
  0.10428764518200293E+02  0.20400600482735151E+00  0.93197450884844935E-01
  0.31464425371549655E+02  0.16082402718265446E-01  0.99012547547362066E-03
  0.36446992315472990E+02  0.23483486605649678E-01  0.13804846487315958E+00
  0.41167662821357055E+02  0.14996117777883136E+00  0.30415252118350838E+00
  0.41847978102515420E+02  0.47465750259862251E-01  0.10929361540680281E+00
  0.10380315310428074E+02  0.21088612822658123E+00  0.96566576549779709E-01
  0.11902608427770467E+02  0.12383562781368793E+00  0.54349305065297664E-01
  0.24594783281068079E+02  0.56702165537027970E-01  0.20726123564958347E-01
  0.38056561566432372E+02  0.46846901808589199E-01  0.14377191469839998E+00
  0.40919218805041908E+02  0.10206473023296128E+01  0.20204928166383418E+01
  0.42885458449877142E+02  0.21745934334459460E+00  0.54416490003956020E+00
  0.10721626627788369E+02  0.18758000268710059E+00  0.83782756866780675E-01
  0.13169377190198484E+02  0.16263437949215664E+00  0.66516919302144983E-01
  0.26275723953563173E+02  0.14609618513119363E+00  0.37914202155415702E-01
  0.36640454244626149E+02  0.27165975550215563E-01  0.13921611855583069E+00