  0.73316259132770345E-06  0.27785036477068849E-05  0.11630141422455608E-05
  0.99615728285689043E-06  0.30149172615465492E-05  0.12620613170419009E-05
  0.10685429186264781E-05  0.30303648435731235E-05  0.12680987969505756E-05
  0.41099732667620380E+02  0.60326187860291772E-01  0.18047321964678353E+00
  0.41099732667620387E+02  0.59801210733956688E-01  0.17894771901781745E+00
  0.41099732667620394E+02  0.60094792851094300E-01  0.17982325608791924E+00
  0.27932333692488420E+01  0.90912663454372465E-03  0.37160339551577353E-03
  0.27932333692489140E+01  0.88475033628139337E-03  0.36145716596926961E-03
  0.66714437995523515E+01  0.82067374774845228E-02  0.30735535774989828E-02
  0.41071737831994227E+02  0.76720484003977504E-01  0.23640638248499116E+00
  0.41071737831994234E+02  0.78161441161922765E-01  0.23986745945689314E+00
  0.44116284831840396E+02  0.89887605544757970E-02  0.22076272990820333E-01
  0.51030361498593670E+01  0.33850029637006816E-02  0.12645777099974651E-02
  0.51030361498595251E+01  0.33954975800268117E-02  0.12688448911014753E-02
  0.12953500857821362E+02  0.30831374389881060E-01  0.78072727928017267E-02
  0.40961406016648020E+02  0.13668235803172149E+00  0.44589777900485666E+00
  0.40961406016648034E+02  0.13680588476424457E+00  0.44581054273529985E+00
  0.44014228665768997E+02  0.37699901612279671E-02  0.10224185483439962E-01
  0.65923130783661312E+01  0.80087976476420214E-02  0.27246591608613641E-02
  0.65923130783662200E+01  0.80943810487692867E-02  0.27588147101752676E-02
  0.18686707758693817E+02  0.33573222126233714E-02  0.96454076988196358E-03
  0.40826914471099499E+02  0.11136715335189483E+00  0.35990478819096733E+00
  0.40826914471099499E+02  0.11352145944611837E+00  0.36742059684149636E+00
  0.43258276310096470E+02  0.19569536994784104E-01  0.87233341587882401E-01
  0.72949177796101070E+01  0.17504743656162169E-01  0.56231560391325494E-02
  0.72949177796102154E+01  0.16513854311487639E-01  0.53082454521086548E-02
  0.23665628167605572E+02  0.10528684838989380E-01  0.17823889092092018E-02
  0.40847867253061168E+02  0.10076914175971075E+00  0.33740984643504313E+00
  0.40847867253061189E+02  0.96509290681234705E-01  0.32275663072223942E+00
  0.41688381923538486E+02  0.44958184662716042E-02  0.24329589051994834E-01
  0.75650810924243981E+01  0.30275608950972963E-01  0.96024113801089234E-02
  0.75650810924244434E+01  0.28318715046522145E-01  0.89834210703700190E-02
  0.27323415841027092E+02  0.31709242852598178E-01  0.17482601097804737E-02
  0.39873250341360716E+02  0.25345433299249456E-02  0.19785544604218507E-01
  0.41034414033619996E+02  0.84800817781121446E-01  0.30488573816761427E+00
  0.41034414033620010E+02  0.86372986178322175E-01  0.30921963353055743E+00
  0.76469346245982113E+01  0.41888364931238995E+12  0.13468290618142264E+12
  0.76469346245982441E+01  0.19925901367420837E+13  0.64067392194800562E+12
  0.28754351784299786E+02  0.27242619537583392E+12  0.11110703984185389E+11
  0.38996639081948516E+02  0.13916920705959055E+11  0.34123254158041412E+12
  0.41147667311100655E+02  0.99635829111622363E+12  0.30988208439994961E+13
  0.41147667311100662E+02  0.60392803290123950E+12  0.18783050166957256E+13
  0.75650810924244229E+01  0.29116722146832467E-01  0.92360324234675457E-02
  0.75650810924244549E+01  0.29477601850663386E-01  0.93498000270115893E-02
  0.27323415841027082E+02  0.31709242852598310E-01  0.17482601097804876E-02
  0.39873250341360709E+02  0.25345433299249548E-02  0.19785544604218622E-01
  0.41034414033620003E+02  0.85878930455764529E-01  0.30837688310693173E+00
  0.41034414033620024E+02  0.85294873503745192E-01  0.30572848859152341E+00
  0.72949177796101239E+01  0.17484456146715302E-01  0.56167076937837781E-02
  0.72949177796101923E+01  0.16534141820934403E-01  0.53146937974573837E-02
  0.23665628167605572E+02  0.10528684838989362E-01  0.17823889092091984E-02
  0.40847867253061182E+02  0.97252042694022475E-01  0.32533266621667001E+00
  0.40847867253061189E+02  0.10002638974691413E+00  0.33483381094058579E+00
  0.41688381923538500E+02  0.44958184662716449E-02  0.24329589051995140E-01
  0.65923130783661250E+01  0.80063585801947099E-02  0.27235565318888982E-02
  0.65923130783661561E+01  0.80968201162162252E-02  0.27599173391476104E-02
  0.18686707758693810E+02  0.33573222126233645E-02  0.96454076988196401E-03
  0.40826914471099506E+02  0.11397096635710134E+00  0.36895205635784134E+00
  0.40826914471099514E+02  0.11091764644090107E+00  0.35837332867458982E+00
  0.43258276310096477E+02  0.19569536994783417E-01  0.87233341587879237E-01
  0.51030361498594621E+01  0.33871648040350597E-02  0.12654253601329338E-02
  0.51030361498595154E+01  0.33933357396926825E-02  0.12679972409661024E-02
  0.12953500857821368E+02  0.30831374389881108E-01  0.78072727928017571E-02
  0.40961406016648034E+02  0.13687074087614728E+00  0.44576089267604929E+00
  0.40961406016648041E+02  0.13661750191980662E+00  0.44594742906406859E+00
  0.44014228665768997E+02  0.37699901612279671E-02  0.10224185483439953E-01
  0.27932333692488309E+01  0.90728216708680514E-03  0.37086560693043192E-03
  0.27932333692488758E+01  0.88659480373828783E-03  0.36219495455460071E-03
  0.66714437995523515E+01  0.82067374774845193E-02  0.30735535774989819E-02
  0.41071737831994227E+02  0.77098348554951512E-01  0.23730921315668263E+00
  0.41071737831994234E+02  0.77783576610948313E-01  0.23896462878520167E+00
  0.44116284831840396E+02  0.89887605544758074E-02  0.22076272990820347E-01
  0.40345302208223908E+01  0.15131408573287248E-02  0.59747949759079337E-03
  0.40345302208225293E+01  0.14843428634764195E-02  0.58600634932701547E-03
  0.66662003763579367E+01  0.81256893513930468E-02  0.30785170830514197E-02
  0.41097004918639549E+02  0.62706670659190680E-01  0.19405437815587467E+00
  0.41097004918639563E+02  0.60693900226148755E-01  0.18831138434307881E+00
  0.44075059318069776E+02  0.12390183554221198E-01  0.29876990528045162E-01
  0.57383487188169751E+01  0.50635575602277225E-02  0.18568447252025591E-02
  0.58645139289493171E+01  0.51205615331295770E-02  0.18458261301808655E-02
  0.11532845588551936E+02  0.30023989429062523E-01  0.81542232720691991E-02
  0.40968211760613698E+02  0.12998857627688618E+00  0.43349586580902522E+00
  0.41053027192444105E+02  0.76356033717807692E-01  0.24874215053578516E+00
  0.43988808941671437E+02  0.44281966161550555E-02  0.11717993171563548E-01
  0.71388055508678736E+01  0.13192390441076131E-01  0.42539308776121500E-02
  0.73459299754775236E+01  0.17295538158115849E-01  0.56560338859194745E-02
  0.16917195586847946E+02  0.22458993299986994E-02  0.71168891914671201E-03
  0.40770364321473387E+02  0.88452866568605640E-01  0.29892605803445860E+00
  0.40951455133081112E+02  0.13468202244139832E+00  0.45400738915667666E+00
  0.43442029417307054E+02  0.10080046788296102E-01  0.39950703973836620E-01
  0.77458657867160303E+01  0.23188367111030145E-01  0.70286306901675743E-02
  0.84300504455011485E+01  0.34544733940208010E-01  0.10188993903928960E-01
  0.21823680072524116E+02  0.65029884338253718E-02  0.14037544079322820E-02
  0.40580826378889498E+02  0.29053518651813603E-01  0.10284223781785984E+00
  0.40764226620950275E+02  0.81158318224921089E-01  0.28387416833010132E+00
  0.42429706552017656E+02  0.13479520155413847E-01  0.74963081607688428E-01
  0.80015552904716056E+01  0.29976737067314924E-01  0.90262295676767391E-02
  0.89777981837807541E+01  0.55455631087400765E-01  0.15277388781628700E-01
  0.25734401833369432E+02  0.23857183835524154E-01  0.23321640078307125E-02
  0.39591644895490191E+02  0.42165906727937661E-02  0.22858426321683140E-01
  0.40968863355774559E+02  0.12237035833197207E+00  0.44577631822670988E+00
  0.41757930754083368E+02  0.47930674218298816E-02  0.24979377803542421E-01
  0.81286731509100161E+01  0.31501886839588683E-01  0.95251577421977419E-02
  0.91845855581732767E+01  0.64588263498777679E-01  0.17133474189336927E-01
  0.27850840915070687E+02  0.26969685369527107E-01  0.10206494746160832E-02
  0.38591964187781066E+02  0.27704563350858190E-02  0.29854972902638475E-01
  0.41096462586506114E+02  0.56331740949525970E-01  0.19898601694597795E+00
  0.41712553209879054E+02  0.49930461452516095E-02  0.24062744456660661E-01
  0.80828645503217604E+01  0.31023560998246776E-01  0.94302440009873083E-02
  0.91288623725791354E+01  0.61464585045070304E-01  0.16323743450478503E-01
  0.27412959913614252E+02  0.31276759273640591E-01  0.14738050838194123E-02
  0.38780179517633869E+02  0.28840369249242808E-02  0.26117047024912580E-01
  0.40993784312625550E+02  0.10450220844346891E+00  0.37611789145662644E+00
  0.41805265304773449E+02  0.50969625067311753E-02  0.24800083617522655E-01
  0.78152697304724450E+01  0.25116241083732470E-01  0.77784907536989504E-02
  0.89373971561311887E+01  0.55275241682849120E-01  0.14977189021412830E-01
  0.24582522516901388E+02  0.13722287384955460E-01  0.18844462867189749E-02
  0.39823133926769607E+02  0.36659602267864414E-02  0.18380348055976853E-01
  0.40828625941431746E+02  0.10773227541492575E+00  0.36226192083057079E+00
  0.42074319278607653E+02  0.53876536513290671E-02  0.29459563424824527E-01
  0.71635225454342857E+01  0.13700279446090176E-01  0.45126524346555414E-02
  0.86181645482939739E+01  0.41337687341864542E-01  0.11653719633491528E-01
  0.20216489705030195E+02  0.44194293451413355E-02  0.11093860186301419E-02
  0.40567399992575368E+02  0.28473429795192930E-01  0.10102484417900735E+00
  0.40801208708672391E+02  0.11521227468465990E+00  0.37578131462975656E+00
  0.42866400879258904E+02  0.23664460648765422E-01  0.12266430385949904E+00
  0.58234541453867719E+01  0.50350405589132743E-02  0.18327228360636536E-02
  0.77558421165008919E+01  0.23179130119324636E-01  0.72589450347116235E-02
  0.15133807881510393E+02  0.16995564936879389E-02  0.58252834352143918E-03
  0.40892868308449302E+02  0.93700998904468605E-01  0.30002435745648026E+00
  0.41018114452142548E+02  0.91716673472553079E-01  0.31305824313048020E+00
  0.43595665397009284E+02  0.67755534975911559E-02  0.20927225089591335E-01
  0.39171564026263774E+01  0.14160141378240668E-02  0.55973010445488087E-03
  0.58600974605799800E+01  0.51716865537611663E-02  0.18956379571901331E-02
  0.10065725615994685E+02  0.54103154931885854E-01  0.15831226770456189E-01
  0.40991040517849399E+02  0.11508152380043732E+00  0.36509810457346542E+00
  0.41486010734530538E+02  0.44577475023591653E-02  0.15813318522411784E-01
  0.43679665052898009E+02  0.64578122268398397E-02  0.17868380115003218E-01
  0.71495876723873302E+01  0.13728722119479446E-01  0.44241746095393768E-02
  0.71495876723874003E+01  0.13470036217132520E-01  0.43429764526366089E-02
  0.13159291974692749E+02  0.33036193180064156E-01  0.84969569451534086E-02
  0.40823691972834560E+02  0.11090296082156724E+00  0.36965795050155720E+00
  0.40823691972834574E+02  0.11365652419085356E+00  0.37944221673072398E+00
  0.44091599202117749E+02  0.75883211648416172E-02  0.19179134134888032E-01
  0.80667468329085956E+01  0.31388279068832424E-01  0.90742069939425130E-02
  0.85368434922496679E+01  0.38150981107958858E-01  0.10669096193600326E-01
  0.16858633006524773E+02  0.21762539328274520E-02  0.72290980507310431E-03
  0.40622439010980692E+02  0.31099846969454222E-01  0.11573121183576390E+00
  0.40741887218842415E+02  0.63538839637242175E-01  0.22567285341916968E+00
  0.43661799419251118E+02  0.65026593161295020E-02  0.19721737530380975E-01
  0.85094513593976711E+01  0.38375304832633600E-01  0.10386050731971441E-01
  0.10101295438320106E+02  0.57812287375186192E-01  0.13249932354239049E-01
  0.20666988514262481E+02  0.48870000758555665E-02  0.12310182496614221E-02
  0.40432864700888686E+02  0.11522285952475675E-01  0.41999287464928835E-01
  0.40634636787983652E+02  0.32233246721249206E-01  0.12370803452021323E+00
  0.42816634371244007E+02  0.23679792347059529E-01  0.12494141590648630E+00
  0.87601490990607083E+01  0.47949685448184266E-01  0.12842437739539223E-01
  0.11290082812255370E+02  0.39576893793945127E-01  0.80509373775675130E-02
  0.24002384120469365E+02  0.11857403502329293E-01  0.18211571434648749E-02
  0.39221783249771818E+02  0.43817833592385549E-02  0.22639221146142651E-01
  0.40864316122321291E+02  0.84071069248599792E-01  0.31267887301298253E+00
  0.42458340101408957E+02  0.13191752362214315E-01  0.79628921678457407E-01
  0.89510375752227791E+01  0.54736323351669412E-01  0.14599252164253304E-01
  0.11877656373794949E+02  0.27912013338528760E-01  0.56717016091132133E-02
  0.26254023168264396E+02  0.37580821812063077E-01  0.26644016127477929E-02
  0.37984224276888931E+02  0.36792121923226455E-02  0.36844346287823210E-01
  0.40989689096904947E+02  0.10280277662109263E+00  0.39459813058992887E+00
  0.42495400547996525E+02  0.13538588884292709E-01  0.81244903112011532E-01
  0.89588177082989429E+01  0.54725206178045709E-01  0.14669504526606095E-01
  0.11874540250023514E+02  0.28057446616259137E-01  0.56416484377353566E-02
  0.26623716343427731E+02  0.40985296935823541E-01  0.23108679444866932E-02
  0.37660069693518651E+02  0.28617054041596979E-02  0.36442944529239865E-01
  0.40862574847297417E+02  0.85725836589901905E-01  0.31241715990826613E+00
  0.42677464099433671E+02  0.17960470377416396E-01  0.10663501280682540E+00
  0.87475114467406527E+01  0.46828569678325278E-01  0.12991084030779188E-01
  0.11550219498373044E+02  0.33108962649584898E-01  0.65069904103820693E-02
  0.24841212061408214E+02  0.15294909372500776E-01  0.17276747567725528E-02
  0.38277872074658958E+02  0.37669084354874350E-02  0.32733564292080665E-01
  0.40692139703145315E+02  0.46192034662545789E-01  0.16847425003770133E+00
  0.42918007295419841E+02  0.21631551402175195E-01  0.12951959272272345E+00
  0.82607089249344607E+01  0.32471052721841052E-01  0.97001496862832732E-02
  0.11234305370043948E+02  0.41543739681161145E-01  0.81572814167007544E-02
  0.21528210223872069E+02  0.62352435939957438E-02  0.13098242436090364E-02
  0.39352474587463178E+02  0.44990686045785003E-02  0.23213693301393383E-01
  0.40683949501204317E+02  0.45142191679018583E-01  0.15856440794091300E+00
  0.43126453186322522E+02  0.29074705806879184E-01  0.16675818310598650E+00
  0.72386937015771995E+01  0.15602000675901338E-01  0.51484014944513691E-02
  0.10276265232135021E+02  0.50691265855677084E-01  0.11523403886232549E-01
  0.17930435894850181E+02  0.28648546223275107E-02  0.84897138953702255E-03
  0.40479133095548136E+02  0.16446239296693425E-01  0.60527631858736698E-01
  0.40792780846200728E+02  0.11105556333601478E+00  0.36116576479979962E+00
  0.43252561579358741E+02  0.18981585131481390E-01  0.92653284084398879E-01
  0.58234541453867976E+01  0.50350405589133229E-02  0.18327228360636705E-02
  0.77417326184510138E+01  0.22736620964384700E-01  0.71244958297563901E-02
  0.15140066186638142E+02  0.17004052824078674E-02  0.58282242231511776E-03
  0.40892868308449302E+02  0.93700998904468855E-01  0.30002435745648087E+00
  0.41002145426011708E+02  0.10417643507002788E+00  0.35434113053817573E+00
  0.43611019535668156E+02  0.67744408695646118E-02  0.20813505222767616E-01
  0.86739581480189027E+01  0.44961087799230137E-01  0.11587164127002260E-01
  0.86739581480189187E+01  0.44955179036560988E-01  0.11582231922071048E-01
  0.19371093498807166E+02  0.36179490596078795E-02  0.10888028363439514E-02
  0.40479528400683343E+02  0.15733443175044985E-01  0.63331640230958400E-01
  0.40479528400683343E+02  0.15607328419128352E-01  0.62957520015978138E-01
  0.43547714982112296E+02  0.67201047319038849E-02  0.21355890063663882E-01
  0.89519158737217168E+01  0.56469999833038020E-01  0.13717841533412496E-01
  0.96696085114774224E+01  0.64685800703485410E-01  0.14124652261247152E-01
  0.22275807924549731E+02  0.67827943427878467E-02  0.16107980031531118E-02
  0.40386759041771377E+02  0.89229957492307187E-02  0.36175418806473382E-01
  0.40548627593721235E+02  0.23531982363437318E-01  0.98367671948794477E-01
  0.42713901952167838E+02  0.22442336968018256E-01  0.11169972357933766E+00
  0.91723154548743331E+01  0.66399423263877752E-01  0.15707980507831485E-01
  0.11418479930641086E+02  0.37047808626233032E-01  0.68014262593864240E-02
  0.24646058364221915E+02  0.13345027548697829E-01  0.21153165305690066E-02
  0.39232647297437204E+02  0.44200173884071277E-02  0.22648870407289891E-01
  0.40803091415972851E+02  0.10223710011905175E+00  0.40298566568530214E+00
  0.42440677353851733E+02  0.12791780120586333E-01  0.78631383823039303E-01
  0.93838616909334309E+01  0.10330073896524350E+00  0.24093317889923010E-01
  0.12936066313006625E+02  0.35205872384752465E-01  0.58194456058783600E-02
  0.26336100670991254E+02  0.39526225315126784E-01  0.30186324565274086E-02
  0.37555987927792273E+02  0.29632312580681118E-02  0.33751557177547686E-01
  0.40924690898594768E+02  0.11629712637660573E+00  0.47513372402513138E+00
  0.42742833306183250E+02  0.20195873167755337E-01  0.12850179868622094E+00
  0.94253065159997860E+01  0.12061334387162545E+00  0.28083615770814200E-01
  0.13500659758366133E+02  0.34775934655405676E-01  0.54355818918341951E-02
  0.26912760157959422E+02  0.38755366068477459E-01  0.16502824413243357E-02
  0.36701182082042919E+02  0.15662107289516791E-02  0.39271804925762488E-01
  0.40766877390212514E+02  0.77304850889395482E-01  0.30346549859294902E+00
  0.43067985368789074E+02  0.24554969531597085E-01  0.16125843933563858E+00
  0.92892331587678818E+01  0.94874352272011450E-01  0.22650971131431514E-01
  0.13206259682696070E+02  0.38942247708160828E-01  0.60940264726389920E-02
  0.25807290118062848E+02  0.27009242637114322E-01  0.18548921588941660E-02
  0.37007291761083920E+02  0.21464012715463111E-02  0.39315033405320443E-01
  0.40559681551694467E+02  0.25114000825341647E-01  0.10060959572870389E+00
  0.43341564406967258E+02  0.10535158941188724E-01  0.63881628222571679E-01
  0.89882124408746140E+01  0.55346953792138824E-01  0.14652350060030125E-01
  0.12615309022321988E+02  0.30682819766577094E-01  0.52006171741651236E-02
  0.23522195763445904E+02  0.10558101151460062E-01  0.15212139577316767E-02
  0.37983983981784220E+02  0.38913696537440112E-02  0.35972913059500768E-01
  0.40545165537460626E+02  0.24635645919713966E-01  0.94109253144731064E-01
  0.43433217493383118E+02  0.86330251473923317E-02  0.46014208429644654E-01
  0.82607089249346100E+01  0.32471052721842267E-01  0.97001496862834762E-02
  0.11230851921058402E+02  0.41604152556138287E-01  0.81705963566155795E-02
  0.21514983029531635E+02  0.62184849167092942E-02  0.13078596138651700E-02
  0.39357628171999679E+02  0.45008094076541090E-02  0.23231751178431799E-01
  0.40683949501204289E+02  0.45142191679011005E-01  0.15856440794088750E+00
  0.43129250494536471E+02  0.29059301490516672E-01  0.16646332261077845E+00
  0.71635225454343257E+01  0.13700279446091259E-01  0.45126524346558580E-02
  0.85143760843113157E+01  0.37445320874912764E-01  0.10620094930739067E-01
  0.20282883272755054E+02  0.44857630394268197E-02  0.11240519314649740E-02
  0.40391985634956143E+02  0.98603032568161143E-02  0.35770213115147192E-01
  0.40801208708672405E+02  0.11521227468466444E+00  0.37578131462977210E+00
  0.43021146255977413E+02  0.26513200826950516E-01  0.13819273182847491E+00
  0.91112792443191228E+01  0.64449147087088890E-01  0.14635116630350197E-01
  0.91112792443191317E+01  0.64426690322845093E-01  0.14662403329932001E-01
  0.25047447495664098E+02  0.14564587093931365E-01  0.23884821493585424E-02
  0.40635923831498907E+02  0.30596306858754967E-01  0.13087517600513296E+00
  0.40635923831498928E+02  0.30268857018767928E-01  0.12974466990921821E+00
  0.41759763749990363E+02  0.52207994174887310E-02  0.24724412646949186E-01
  0.92504738385741909E+01  0.11312820338277739E+00  0.24744690877875581E-01
  0.99689952308690319E+01  0.65184448106823584E-01  0.13307598048560496E-01
  0.27288095198152345E+02  0.29677558361928494E-01  0.22942659787194663E-02
  0.39520489630120693E+02  0.43827140037885643E-02  0.23505969294026111E-01
  0.40864991281456703E+02  0.77592719545465816E-01  0.32402917906526907E+00
  0.41633960356189625E+02  0.41964932025947898E-02  0.23370108469781832E-01
  0.94178534669663314E+01  0.12162510169860583E+00  0.26919736236184891E-01
  0.11777062256669002E+02  0.29501330153269827E-01  0.52139347524011786E-02
  0.28582676344608569E+02  0.15606547918321013E-01  0.53010048840203511E-03
  0.37419341957019995E+02  0.24099550101752262E-02  0.33973537269696458E-01
  0.40976427255853189E+02  0.10373995344207197E+00  0.44755855916979387E+00
  0.42319007113861012E+02  0.94205175382246400E-02  0.59512175944206179E-01
  0.94865825839612263E+01  0.15666833468513458E+00  0.34335409531293902E-01
  0.13332488982502204E+02  0.38307884049733523E-01  0.57575877296090362E-02
  0.28787180850771520E+02  0.15746771026774013E-01  0.19338362888115320E-03
  0.35991326778253097E+02  0.51936975791517983E-03  0.43808424977260202E-01
  0.40827129384282536E+02  0.95746718952360740E-01  0.38892253392852538E+00
  0.42904650702951180E+02  0.19722549964497248E-01  0.13308855225365523E+00
  0.94446935258001883E+01  0.11571744372429241E+00  0.26060249416264360E-01
  0.13773064508895963E+02  0.52321226307861284E-01  0.73766455956774443E-02
  0.27610897323036699E+02  0.32215374351920491E-01  0.69726718542296757E-03
  0.36034688544035774E+02  0.64029458564796601E-03  0.44355399808619807E-01
  0.40606312759090692E+02  0.27066976010620251E-01  0.11344315528972801E+00
  0.43276676627345495E+02  0.13876304329526343E-01  0.88937757038809628E-01
  0.92892331587678125E+01  0.94874352272005594E-01  0.22650971131430244E-01
  0.13228751539440850E+02  0.38945454899755677E-01  0.60821858331888898E-02
  0.25782031503015521E+02  0.26537466588890998E-01  0.18384649345652903E-02
  0.37006499807694730E+02  0.21458300170589424E-02  0.39319379439456688E-01
  0.40559681551694453E+02  0.25114000825340706E-01  0.10060959572869993E+00
  0.43350413181955886E+02  0.10116740612736451E-01  0.60997112260500627E-01
  0.87475114467406332E+01  0.46828569678324466E-01  0.12991084030778933E-01
  0.11595418273257945E+02  0.31970432773604583E-01  0.62953201462153004E-02
  0.24781878499969196E+02  0.15028650948520048E-01  0.17176774074133118E-02
  0.38272598747434479E+02  0.37551667590007940E-02  0.32855648590308616E-01
  0.40692139703145301E+02  0.46192034662542035E-01  0.16847425003768718E+00
  0.42944815590626895E+02  0.22127556910866094E-01  0.13159468358237192E+00
  0.78152697304726031E+01  0.25116241083737230E-01  0.77784907537003728E-02
  0.89007861059323332E+01  0.54417344507299702E-01  0.14797533741092038E-01
  0.24605577248301042E+02  0.13797366887883807E-01  0.18896195914705595E-02
  0.39822423085705793E+02  0.36865564727943281E-02  0.18352570738101433E-01
  0.40828625941431788E+02  0.10773227541490248E+00  0.36226192083049569E+00
  0.42069276369880868E+02  0.53177161795504579E-02  0.29271669708680330E-01
  0.92545724149971580E+01  0.11657708210024553E+00  0.25280122912625620E-01
  0.92545724149971882E+01  0.11628309107782939E+00  0.25224994890067836E-01
  0.29800860791952722E+02  0.85094496123995639E-02  0.27336373790251464E-03
  0.39089031573017948E+02  0.29344776495710250E-02  0.24633212696681638E-01
  0.41030158276965302E+02  0.69811517663929540E-01  0.30839851760872350E+00
  0.41030158276965309E+02  0.70515982976112890E-01  0.30976964892817704E+00
  0.93186550581752456E+01  0.10245822000866808E+00  0.22526716278611518E-01
  0.10051626835705630E+02  0.61912067457207329E-01  0.12614454391779694E-01
  0.31153725138393071E+02  0.57020012597036917E-02  0.44884876083537061E-04
  0.37349095762923355E+02  0.12776133079027442E-02  0.38380689704536557E-01
  0.41118573462710415E+02  0.29982484217892076E-01  0.12928210840048965E+00
  0.41571349417464972E+02  0.39273413486713288E-02  0.21117827442647254E-01
  0.94158695816282947E+01  0.12151718888151268E+00  0.26600215705690253E-01
  0.11845624043685728E+02  0.29053040770257103E-01  0.51061752225732351E-02
  0.30734672772211390E+02  0.69330156053617250E-02  0.46012325445044280E-05
  0.36054112484771515E+02  0.10763104747255372E-03  0.48992175575051707E-01
  0.41009338807522624E+02  0.82355820773173785E-01  0.36116729055722324E+00
  0.42322132021028736E+02  0.94718771623790842E-02  0.60130997742065595E-01
  0.94865825839612334E+01  0.15666833468512983E+00  0.34335409531292799E-01
  0.13336830397999705E+02  0.38243525615905320E-01  0.57465457018140284E-02
  0.28797005926561301E+02  0.15689076992149411E-01  0.19014830158924797E-03
  0.35987496850211976E+02  0.51324873795741805E-03  0.43697293821753823E-01
  0.40827129384282536E+02  0.95746718952360615E-01  0.38892253392852560E+00
  0.42899920443532089E+02  0.19688121987216138E-01  0.13293757974195422E+00
  0.94253065159998020E+01  0.12061334387162559E+00  0.28083615770814224E-01
  0.13488550295190135E+02  0.34963981224505739E-01  0.54692527691715962E-02
  0.26948382290158495E+02  0.38702498085568908E-01  0.16097329502059304E-02
  0.36693810242995824E+02  0.15492847476397268E-02  0.39251276269453801E-01
  0.40766877390212535E+02  0.77304850889413260E-01  0.30346549859301558E+00
  0.43055784697356550E+02  0.23884689975900590E-01  0.15699637329651359E+00
  0.89588177082989571E+01  0.54725206178045854E-01  0.14669504526606156E-01
  0.11873680815936810E+02  0.28059776729358835E-01  0.56425784543702989E-02
  0.26612589587957615E+02  0.41204222362889405E-01  0.23351639701750812E-02
  0.37661735184278051E+02  0.28665182539576745E-02  0.36463136062080299E-01
  0.40862574847297445E+02  0.85725836589892399E-01  0.31241715990823499E+00
  0.42683172932402307E+02  0.18291027872819526E-01  0.10854767281427787E+00
  0.80828645503218048E+01  0.31023560998247254E-01  0.94302440009874176E-02
  0.91677664943643844E+01  0.62820372473136515E-01  0.16606919038296124E-01
  0.27356277655262790E+02  0.32071708853462839E-01  0.15415250702058467E-02
  0.38765445638413802E+02  0.28809050942375865E-02  0.26361115484383336E-01
  0.40993784312625550E+02  0.10450220844346879E+00  0.37611789145662589E+00
  0.41847525433094376E+02  0.51039244112735770E-02  0.24785158989808057E-01
  0.92649847966119978E+01  0.79956727728384338E+11  0.15481214139046488E+11
  0.92649847966120262E+01  0.24550910959750763E+12  0.53443460239683632E+11
  0.32349498402940625E+02  0.44629807341539703E+12  0.17807731121836429E-34
  0.37205764589577257E+02  0.24532541931962506E-32  0.41584230781911359E+12
  0.41199366162526189E+02  0.31998222449805072E+12  0.75940267241683911E+12
  0.41199366162526196E+02  0.49239698993286636E+11  0.45164618291374799E+12
  0.93186550581752350E+01  0.10245822000866764E+00  0.22526716278611487E-01
  0.10052260129101096E+02  0.61885174832679163E-01  0.12608505211374752E-01
  0.31153492024661777E+02  0.57023775210721991E-02  0.44895938368911602E-04
  0.37349085654041403E+02  0.12775445944667502E-02  0.38381104492224705E-01
  0.41118573462710437E+02  0.29982484217874618E-01  0.12928210840041657E+00
  0.41571380065053255E+02  0.39276653405756097E-02  0.21118569895388167E-01
  0.94178534669663154E+01  0.12162510169860188E+00  0.26919736236183961E-01
  0.11778603594766313E+02  0.29487038810704153E-01  0.52112019464748095E-02
  0.28581542156734972E+02  0.15617935446958905E-01  0.53091780132492482E-03
  0.37420632057644767E+02  0.24123886546346374E-02  0.33968511844062702E-01
  0.40976427255853174E+02  0.10373995344208219E+00  0.44755855916983983E+00
  0.42318203408510023E+02  0.93987135276146563E-02  0.59371607474754423E-01
  0.93838616909334558E+01  0.10330073896525543E+00  0.24093317889925726E-01
  0.12917537505491113E+02  0.34878388785136473E-01  0.57784377018331619E-02
  0.26359480862204556E+02  0.40142581074299064E-01  0.30370215568874055E-02
  0.37549764912959169E+02  0.29439013834795854E-02  0.33691033284047635E-01
  0.40924690898594761E+02  0.11629712637660035E+00  0.47513372402510617E+00
  0.42739492122983130E+02  0.20084738174722019E-01  0.12785487518693756E+00
  0.89510375752227382E+01  0.54736323351668850E-01  0.14599252164253262E-01
  0.11837597324957446E+02  0.28076633134846318E-01  0.57135426910821865E-02
  0.26282077565676744E+02  0.38584045791383755E-01  0.27028932949059096E-02
  0.37975720198965867E+02  0.36652211162432773E-02  0.36925683935784381E-01
  0.40989689096904947E+02  0.10280277662109284E+00  0.39459813058992949E+00
  0.42496837280898220E+02  0.13550039532290588E-01  0.81262778415888803E-01
  0.81286731509100889E+01  0.31501886839589398E-01  0.95251577421978737E-02
  0.92089530947207443E+01  0.69748018706157100E-01  0.18392432218122631E-01
  0.27789629011282670E+02  0.27538612728946841E-01  0.10735096340866090E-02
  0.38581586263111966E+02  0.27796548536455617E-02  0.30045032781630673E-01
  0.41096462586506135E+02  0.56331740949506319E-01  0.19898601694590726E+00
  0.41757581951623003E+02  0.50927851508160834E-02  0.24467571407971136E-01
  0.92504738385741838E+01  0.11312820338277099E+00  0.24744690877874412E-01
  0.99682505382305493E+01  0.65209970436479830E-01  0.13313377346312071E-01
  0.27287513173548913E+02  0.29684275069086864E-01  0.22953673129523519E-02
  0.39520693610310985E+02  0.43827262439408189E-02  0.23503806185830124E-01
  0.40864991281456717E+02  0.77592719545462166E-01  0.32402917906525486E+00
  0.41634326505566868E+02  0.41979914470089965E-02  0.23380030693480741E-01
  0.91723154548744485E+01  0.66399423263889659E-01  0.15707980507834007E-01
  0.11414261528967671E+02  0.37172058547657594E-01  0.68236221300334420E-02
  0.24644314201285368E+02  0.13339471801426419E-01  0.21149030403371911E-02
  0.39230792496431839E+02  0.44137112980305307E-02  0.22642211173101903E-01
  0.40803091415972865E+02  0.10223710011905499E+00  0.40298566568531308E+00
  0.42444539300556663E+02  0.12859091654506697E-01  0.78979087601687481E-01
  0.87601490990607545E+01  0.47949685448186327E-01  0.12842437739539728E-01
  0.11278987468933289E+02  0.39829921745713481E-01  0.81045664991080124E-02
  0.24012082560664407E+02  0.11890629588839146E-01  0.18224474977378599E-02
  0.39218268653660353E+02  0.43703695167841899E-02  0.22624454392348350E-01