  0.00000000000000000E+00  0.20446760596548236E-05  0.85605432735899910E-06
  0.00000000000000000E+00  0.19785300275590714E-05  0.82854091140957881E-06
  0.00000000000000000E+00  0.21590541447569623E-05  0.90362984672435766E-06
  0.41099732667620380E+02  0.59362070264222355E-01  0.17823510372977616E+00
  0.41099732667620387E+02  0.58981437882035651E-01  0.17707033941096956E+00
  0.41099732667620394E+02  0.59231016609862061E-01  0.17783406948365243E+00
  0.27932333692488420E+01  0.97088560502904076E-03  0.39700276668549008E-03
  0.27932333692489140E+01  0.92962766748801249E-03  0.37991881053205183E-03
  0.66714437995523515E+01  0.83543716675433533E-02  0.31290934778184488E-02
  0.41071737831994227E+02  0.76674235008520594E-01  0.23510965502729539E+00
  0.41071737831994234E+02  0.81351205636163229E-01  0.24749062998303367E+00
  0.44116284831840396E+02  0.87959250264899452E-02  0.21561713757764018E-01
  0.51030361498593670E+01  0.35061895954068990E-02  0.13100188687114006E-02
  0.51030361498595251E+01  0.34206034206723051E-02  0.12782814302835764E-02
  0.12953500857821362E+02  0.30932396356829046E-01  0.78310739512152897E-02
  0.40961406016648020E+02  0.13123661835323788E+00  0.42626988636868152E+00
  0.40961406016648034E+02  0.13207196004036550E+00  0.42899723133907297E+00
  0.44014228665768997E+02  0.34628735479953314E-02  0.93271709278450708E-02
  0.65923130783661312E+01  0.82764546625193457E-02  0.28155508402519648E-02
  0.65923130783662200E+01  0.81688894051132471E-02  0.27840587203237228E-02
  0.18686707758693817E+02  0.33581763258949109E-02  0.96477829048775539E-03
  0.40826914471099499E+02  0.11081286912157103E+00  0.35885392343758771E+00
  0.40826914471099499E+02  0.11326315137275686E+00  0.36709999470960319E+00
  0.43258276310096470E+02  0.20281391996231957E-01  0.90543582589506857E-01
  0.72949177796101070E+01  0.18008906258398367E-01  0.57847268513124168E-02
  0.72949177796102154E+01  0.16652938675131096E-01  0.53525712704688491E-02
  0.23665628167605572E+02  0.10542829382880257E-01  0.17841272736155438E-02
  0.40847867253061168E+02  0.99354773310479663E-01  0.33373406397248884E+00
  0.40847867253061189E+02  0.96404626856179190E-01  0.32302622805388820E+00
  0.41688381923538486E+02  0.44163226913088707E-02  0.24012900723665451E-01
  0.75650810924243981E+01  0.30639297372130832E-01  0.97184445225452932E-02
  0.75650810924244434E+01  0.28300977880392427E-01  0.89772283712798561E-02
  0.27323415841027092E+02  0.31750673382980620E-01  0.17506910973303018E-02
  0.39873250341360716E+02  0.24984561106283108E-02  0.19570435180283421E-01
  0.41034414033619996E+02  0.73370797050526529E-01  0.26103456068879338E+00
  0.41034414033620010E+02  0.77679309059845034E-01  0.27516338565353887E+00
  0.76469346245982113E+01  0.78573627779031702E+12  0.25263637183902670E+12
  0.76469346245982441E+01  0.43940820408204824E+13  0.14128212935233157E+13
  0.28754351784299786E+02  0.23765249937926445E+13  0.96924841168893738E+11
  0.38996639081948516E+02  0.10928057696991514E+11  0.26794784430186777E+12
  0.41147667311100655E+02  0.50780996544107880E+12  0.15793636884745139E+13
  0.41147667311100662E+02  0.74303732067970105E+12  0.23109553638704321E+13
  0.75650810924244229E+01  0.29179719413421012E-01  0.92557777394777427E-02
  0.75650810924244549E+01  0.29760555839103021E-01  0.94398951543476148E-02
  0.27323415841027082E+02  0.31750673382980800E-01  0.17506910973303169E-02
  0.39873250341360709E+02  0.24984561106283190E-02  0.19570435180283518E-01
  0.41034414033620003E+02  0.76356898522160696E-01  0.27082682886129389E+00
  0.41034414033620024E+02  0.74693207588199625E-01  0.26537111748099618E+00
  0.72949177796101239E+01  0.17981737249588983E-01  0.57760679136446965E-02
  0.72949177796101923E+01  0.16680107683940341E-01  0.53612302081365269E-02
  0.23665628167605572E+02  0.10542829382880238E-01  0.17841272736155405E-02
  0.40847867253061182E+02  0.96954404230129257E-01  0.32502169709354534E+00
  0.40847867253061189E+02  0.98804995936520340E-01  0.33173859493280261E+00
  0.41688381923538500E+02  0.44163226913089071E-02  0.24012900723665749E-01
  0.65923130783661250E+01  0.82825141269062645E-02  0.28173248831332436E-02
  0.65923130783661561E+01  0.81628299407259467E-02  0.27822846774423183E-02
  0.18686707758693810E+02  0.33581763258949053E-02  0.96477829048775539E-03
  0.40826914471099506E+02  0.11369756036586463E+00  0.36856193547852445E+00
  0.40826914471099514E+02  0.11037846012845393E+00  0.35739198266863631E+00
  0.43258276310096477E+02  0.20281391996231149E-01  0.90543582589503180E-01
  0.51030361498594621E+01  0.34974069392959845E-02  0.13067620458843813E-02
  0.51030361498595154E+01  0.34293860767834693E-02  0.12815382531106891E-02
  0.12953500857821368E+02  0.30932396356829098E-01  0.78310739512153140E-02
  0.40961406016648034E+02  0.13251692570937118E+00  0.43045001993811144E+00
  0.40961406016648041E+02  0.13079165268421966E+00  0.42481709776960097E+00
  0.44014228665768997E+02  0.34628735479953314E-02  0.93271709278450673E-02
  0.27932333692488309E+01  0.97736172477732707E-03  0.39968437784731998E-03
  0.27932333692488758E+01  0.92315154773970145E-03  0.37723719937021169E-03
  0.66714437995523515E+01  0.83543716675433602E-02  0.31290934778184488E-02
  0.41071737831994227E+02  0.78208035711755719E-01  0.23916996448949288E+00
  0.41071737831994234E+02  0.79817404932928090E-01  0.24343032052083638E+00
  0.44116284831840396E+02  0.87959250264899522E-02  0.21561713757764025E-01
  0.40345302208223908E+01  0.14777681387042219E-02  0.58368724024180578E-03
  0.40345302208225293E+01  0.14597570187174363E-02  0.57619111237849853E-03
  0.66662003763579367E+01  0.82704910676214150E-02  0.31334752772675337E-02
  0.41097004918639549E+02  0.61413548863580365E-01  0.19091412139068986E+00
  0.41097004918639563E+02  0.60130584586539228E-01  0.18684572558323850E+00
  0.44075059318069776E+02  0.12200375316118299E-01  0.29397046782594843E-01
  0.57383487188169751E+01  0.49922164116268618E-02  0.18308682426750034E-02
  0.58645139289493171E+01  0.50822724381633872E-02  0.18321229243941613E-02
  0.11532845588551936E+02  0.30118684289724550E-01  0.81806207022582303E-02
  0.40968211760613698E+02  0.12494503648551590E+00  0.41504088106663450E+00
  0.41053027192444105E+02  0.75209063966868786E-01  0.24577792219077435E+00
  0.43988808941671437E+02  0.42037017720468316E-02  0.11102838425573122E-01
  0.71388055508678736E+01  0.13136343346290304E-01  0.42357938776472828E-02
  0.73459299754775236E+01  0.17529852860226510E-01  0.57361652810306914E-02
  0.16917195586847946E+02  0.22432025337414366E-02  0.71093040976973911E-03
  0.40770364321473387E+02  0.90086246373584533E-01  0.30465073445987229E+00
  0.40951455133081112E+02  0.13206838886978825E+00  0.44457985865203975E+00
  0.43442029417307054E+02  0.89799052776690091E-02  0.35322042589309488E-01
  0.77458657867160303E+01  0.23229123985231758E-01  0.70406175945776231E-02
  0.84300504455011485E+01  0.34538227985203347E-01  0.10186141476580939E-01
  0.21823680072524116E+02  0.65092539894715199E-02  0.14047185189115837E-02
  0.40580826378889498E+02  0.29103306220220240E-01  0.10312389201450216E+00
  0.40764226620950275E+02  0.83480729618640601E-01  0.29200608080598811E+00
  0.42429706552017656E+02  0.13489665482009965E-01  0.74932328351998034E-01
  0.80015552904716056E+01  0.30009653748492404E-01  0.90354216415538900E-02
  0.89777981837807541E+01  0.55410978043649715E-01  0.15265514543939615E-01
  0.25734401833369432E+02  0.23826165764325072E-01  0.23305938776886910E-02
  0.39591644895490191E+02  0.41991437231532541E-02  0.22757903354660106E-01
  0.40968863355774559E+02  0.11768976610741648E+00  0.42707972958873136E+00
  0.41757930754083368E+02  0.47268494757630028E-02  0.24740816293361875E-01
  0.81286731509100161E+01  0.31521774161780890E-01  0.95303252307998489E-02
  0.91845855581732767E+01  0.64431612801470778E-01  0.17093931005834791E-01
  0.27850840915070687E+02  0.27010860231846259E-01  0.10223632903116901E-02
  0.38591964187781066E+02  0.27680277827364730E-02  0.29815632232570360E-01
  0.41096462586506114E+02  0.55851011234580562E-01  0.19755370985466753E+00
  0.41712553209879054E+02  0.49139242499907495E-02  0.23785677702581932E-01
  0.80828645503217604E+01  0.31048895505434753E-01  0.94371401838413155E-02
  0.91288623725791354E+01  0.61349130841598050E-01  0.16294910416709888E-01
  0.27412959913614252E+02  0.31261287747320420E-01  0.14730771831719784E-02
  0.38780179517633869E+02  0.28740112152927013E-02  0.26017984146733984E-01
  0.40993784312625550E+02  0.10281017639245124E+00  0.36966320273184272E+00
  0.41805265304773449E+02  0.50429969189739127E-02  0.24594780555125335E-01
  0.78152697304724450E+01  0.25149482457559144E-01  0.77882445089832286E-02
  0.89373971561311887E+01  0.55227525231362345E-01  0.14964959066369755E-01
  0.24582522516901388E+02  0.13700353613440934E-01  0.18799763915468147E-02
  0.39823133926769607E+02  0.36151760814752704E-02  0.18208085259528040E-01
  0.40828625941431746E+02  0.10731983654377106E+00  0.36160142783467347E+00
  0.42074319278607653E+02  0.53748138917255371E-02  0.29374340553238384E-01
  0.71635225454342857E+01  0.13652957265703933E-01  0.44969672542917250E-02
  0.86181645482939739E+01  0.41302221325812974E-01  0.11643035172252182E-01
  0.20216489705030195E+02  0.44267357082344149E-02  0.11112541595803239E-02
  0.40567399992575368E+02  0.28571108979647236E-01  0.10096318848236699E+00
  0.40801208708672391E+02  0.11264126885339182E+00  0.36842649735481292E+00
  0.42866400879258904E+02  0.23472719475176547E-01  0.12163207936250429E+00
  0.58234541453867719E+01  0.49976525481610894E-02  0.18192091817482445E-02
  0.77558421165008919E+01  0.23205214735840314E-01  0.72666661413164314E-02
  0.15133807881510393E+02  0.17019257615813800E-02  0.58330674176513230E-03
  0.40892868308449302E+02  0.93402295376030883E-01  0.29916550669909403E+00
  0.41018114452142548E+02  0.90502362779569884E-01  0.30855246072070119E+00
  0.43595665397009284E+02  0.69626445259076642E-02  0.21821180745629953E-01
  0.39171564026263774E+01  0.13920025715200898E-02  0.55029610526367660E-03
  0.58600974605799800E+01  0.51188163902372184E-02  0.18766969342725243E-02
  0.10065725615994685E+02  0.54227480633350200E-01  0.15866163636799473E-01
  0.40991040517849399E+02  0.11312420979443036E+00  0.35846707771873298E+00
  0.41486010734530538E+02  0.43113528961291874E-02  0.15426965978101781E-01
  0.43679665052898009E+02  0.68277438094700004E-02  0.19076105696698351E-01
  0.71495876723873302E+01  0.13526303265387406E-01  0.43587462476185517E-02
  0.71495876723874003E+01  0.13408445506807941E-01  0.43236052472102752E-02
  0.13159291974692749E+02  0.33230069280064341E-01  0.85392860184589567E-02
  0.40823691972834560E+02  0.11012735401781623E+00  0.36782938412174360E+00
  0.40823691972834574E+02  0.11316913129112872E+00  0.37829877593567623E+00
  0.44091599202117749E+02  0.74169522962248616E-02  0.18731442772980261E-01
  0.80667468329085956E+01  0.31416434541766340E-01  0.90815529551102180E-02
  0.85368434922496679E+01  0.38138005462070197E-01  0.10664688530698163E-01
  0.16858633006524773E+02  0.21743736729755883E-02  0.72236290247483916E-03
  0.40622439010980692E+02  0.30919540685553575E-01  0.11493449244953656E+00
  0.40741887218842415E+02  0.64690286889217172E-01  0.22884506461626922E+00
  0.43661799419251118E+02  0.66996996348381585E-02  0.20332919920083480E-01
  0.85094513593976711E+01  0.38325275374911871E-01  0.10371635380442772E-01
  0.10101295438320106E+02  0.57991162653874509E-01  0.13289419772431232E-01
  0.20666988514262481E+02  0.48953017854160346E-02  0.12330335837158245E-02
  0.40432864700888686E+02  0.11207788180133283E-01  0.40696310420731061E-01
  0.40634636787983652E+02  0.32035912860322424E-01  0.12282339586305542E+00
  0.42816634371244007E+02  0.23423182759237490E-01  0.12364136887246818E+00
  0.87601490990607083E+01  0.47872847705943522E-01  0.12821522875541705E-01
  0.11290082812255370E+02  0.39686808430352667E-01  0.80729450353833956E-02
  0.24002384120469365E+02  0.11847563305147855E-01  0.18192197851857785E-02
  0.39221783249771818E+02  0.43692339450000306E-02  0.22558935130300672E-01
  0.40864316122321291E+02  0.83687661368936864E-01  0.31183080987968315E+00
  0.42458340101408957E+02  0.13202642223360065E-01  0.79623794382761626E-01
  0.89510375752227791E+01  0.54633402993882363E-01  0.14572697139527932E-01
  0.11877656373794949E+02  0.28042835884995228E-01  0.56982950633048769E-02
  0.26254023168264396E+02  0.37074428455557355E-01  0.26354190685341683E-02
  0.37984224276888931E+02  0.36851307239328668E-02  0.36896974223984004E-01
  0.40989689096904947E+02  0.10099712302640029E+00  0.38717426327114601E+00
  0.42495400547996525E+02  0.13548954416362991E-01  0.81277429992491226E-01
  0.89588177082989429E+01  0.54620168840480252E-01  0.14642324621989451E-01
  0.11874540250023514E+02  0.28194324586758985E-01  0.56688875319818371E-02
  0.26623716343427731E+02  0.40988677378201235E-01  0.23141630936719705E-02
  0.37660069693518651E+02  0.28683547195424339E-02  0.36480374990062320E-01
  0.40862574847297417E+02  0.85324941082106656E-01  0.31155191416888500E+00
  0.42677464099433671E+02  0.17815768548495873E-01  0.10577878810411466E+00
  0.87475114467406527E+01  0.46753363928659225E-01  0.12969828359874359E-01
  0.11550219498373044E+02  0.33222143602914124E-01  0.65296981256566982E-02
  0.24841212061408214E+02  0.15301415408721023E-01  0.17263852305584532E-02
  0.38277872074658958E+02  0.37752046558782288E-02  0.32800747431087247E-01
  0.40692139703145315E+02  0.46397402498959857E-01  0.16915192375534821E+00
  0.42918007295419841E+02  0.21584371847967236E-01  0.12928516937408008E+00
  0.82607089249344607E+01  0.32469026502768894E-01  0.96986421444255882E-02
  0.11234305370043948E+02  0.41640398344001364E-01  0.81762821384289627E-02
  0.21528210223872069E+02  0.62426722890864114E-02  0.13111912318937938E-02
  0.39352474587463178E+02  0.44727438270325834E-02  0.23144272570977804E-01
  0.40683949501204317E+02  0.45182743625863449E-01  0.15863503507352975E+00
  0.43126453186322522E+02  0.28621988146891510E-01  0.16429559809087449E+00
  0.72386937015771995E+01  0.15713198468179094E-01  0.51847142775812462E-02
  0.10276265232135021E+02  0.51038379117668210E-01  0.11599445649350171E-01
  0.17930435894850181E+02  0.28607588959988213E-02  0.84779553964398026E-03
  0.40479133095548136E+02  0.16185059402027021E-01  0.59313841133929207E-01
  0.40792780846200728E+02  0.10905723570945795E+00  0.35558879713774699E+00
  0.43252561579358741E+02  0.19754468222995949E-01  0.96317088163064946E-01
  0.58234541453867976E+01  0.49976525481611415E-02  0.18192091817482614E-02
  0.77417326184510138E+01  0.22763017738688891E-01  0.71326048298460173E-02
  0.15140066186638142E+02  0.17027445508953623E-02  0.58359386162312721E-03
  0.40892868308449302E+02  0.93402295376030939E-01  0.29916550669909397E+00
  0.41002145426011708E+02  0.10330865732669789E+00  0.35087076656709748E+00
  0.43611019535668156E+02  0.69971589301437423E-02  0.21821281471200025E-01
  0.86739581480188974E+01  0.44896247778016013E-01  0.11573053191685116E-01
  0.86739581480189116E+01  0.44928271591509333E-01  0.11571449975633960E-01
  0.19371093498807173E+02  0.36266665245692341E-02  0.10913914524355531E-02
  0.40479528400683336E+02  0.15524332504960192E-01  0.62513532695094270E-01
  0.40479528400683350E+02  0.15178608140680698E-01  0.61230481567600865E-01
  0.43547714982112289E+02  0.66666649843400436E-02  0.21175385084067910E-01
  0.89519158737217168E+01  0.56363578889926699E-01  0.13692839182457346E-01
  0.96696085114774224E+01  0.64187660066686872E-01  0.14024564701610341E-01
  0.22275807924549731E+02  0.67877042544663624E-02  0.16111702436792147E-02
  0.40386759041771377E+02  0.87937889967786322E-02  0.35484000543047629E-01
  0.40548627593721235E+02  0.23355799925591229E-01  0.97665727484227652E-01
  0.42713901952167838E+02  0.22176979137476713E-01  0.11037447761942845E+00
  0.91723154548743331E+01  0.66144432822473315E-01  0.15650896883638146E-01
  0.11418479930641086E+02  0.37153642372152185E-01  0.68211610731238586E-02
  0.24646058364221915E+02  0.13323723928515094E-01  0.21103883967736187E-02
  0.39232647297437204E+02  0.44058252411288343E-02  0.22570562358539353E-01
  0.40803091415972851E+02  0.99956089246812388E-01  0.39510033337753980E+00
  0.42440677353851733E+02  0.12799214233457871E-01  0.78604068505316010E-01
  0.93838616909334309E+01  0.10277220274023245E+00  0.23976790273125777E-01
  0.12936066313006625E+02  0.35332070406010510E-01  0.58402288134588682E-02
  0.26336100670991254E+02  0.39131119624593251E-01  0.29933327426640947E-02
  0.37555987927792273E+02  0.29696171433780845E-02  0.33811817060970417E-01
  0.40924690898594768E+02  0.11933958508623685E+00  0.48855231807933081E+00
  0.42742833306183250E+02  0.19926179651918178E-01  0.12682698709087625E+00
  0.94253065159997860E+01  0.12003872215490732E+00  0.27957109358199131E-01
  0.13500659758366133E+02  0.34530358245240263E-01  0.53971489408651393E-02
  0.26912760157959422E+02  0.38835536816271207E-01  0.16569137184636626E-02
  0.36701182082042919E+02  0.15659460624359845E-02  0.39198543769573539E-01
  0.40766877390212514E+02  0.79197897016769547E-01  0.31099012515334895E+00
  0.43067985368789074E+02  0.24901079102646891E-01  0.16399705846726020E+00
  0.92892331587678818E+01  0.94477481810230551E-01  0.22560441652300950E-01
  0.13206259682696070E+02  0.39152750913606357E-01  0.61252504202228223E-02
  0.25807290118062848E+02  0.26937436075468342E-01  0.18513553005894559E-02
  0.37007291761083920E+02  0.21483940515542635E-02  0.39261445546623204E-01
  0.40559681551694467E+02  0.24952646240906054E-01  0.99958561974379495E-01
  0.43341564406967258E+02  0.10559664243268516E-01  0.63973040052484581E-01
  0.89882124408746140E+01  0.55233977440220801E-01  0.14623625778527280E-01
  0.12615309022321988E+02  0.30832315515795645E-01  0.52245897952544699E-02
  0.23522195763445904E+02  0.10580146985101799E-01  0.15236617790768292E-02
  0.37983983981784220E+02  0.39024934953463303E-02  0.36021948406542922E-01
  0.40545165537460626E+02  0.24439430061462500E-01  0.93406070896541057E-01
  0.43433217493383118E+02  0.76903650565631415E-02  0.40955119555066061E-01
  0.82607089249346100E+01  0.32469026502770164E-01  0.96986421444257825E-02
  0.11230851921058402E+02  0.41700678962332906E-01  0.81895657432409317E-02
  0.21514983029531635E+02  0.62259425500766014E-02  0.13092384875515678E-02
  0.39357628171999679E+02  0.44744143363474338E-02  0.23162306841729128E-01
  0.40683949501204289E+02  0.45182743625855157E-01  0.15863503507350274E+00
  0.43129250494536471E+02  0.28552404916945127E-01  0.16367947852322035E+00
  0.71635225454343257E+01  0.13652957265705019E-01  0.44969672542920476E-02
  0.85143760843113157E+01  0.37420652938536081E-01  0.10612386130659778E-01
  0.20282883272755054E+02  0.44931191899938890E-02  0.11259177742494080E-02
  0.40391985634956143E+02  0.97018080996514964E-02  0.35315628561076715E-01
  0.40801208708672405E+02  0.11264126885339615E+00  0.36842649735482813E+00
  0.43021146255977413E+02  0.26769235849654613E-01  0.13982694487585381E+00
  0.91112792443191228E+01  0.64369140624030610E-01  0.14618220515058355E-01
  0.91112792443191317E+01  0.64244236160633211E-01  0.14623032757675514E-01
  0.25047447495664098E+02  0.14605106399117652E-01  0.23918684906291390E-02
  0.40635923831498907E+02  0.30806544241484910E-01  0.13157271186631703E+00
  0.40635923831498928E+02  0.30224803732112431E-01  0.12939816559783576E+00
  0.41759763749990363E+02  0.51570434116844331E-02  0.24506010623633594E-01
  0.92504738385741909E+01  0.11277351881887732E+00  0.24669524586182587E-01
  0.99689952308690319E+01  0.65175808679313621E-01  0.13306930628653822E-01
  0.27288095198152345E+02  0.29707353968207874E-01  0.22976017690452123E-02
  0.39520489630120693E+02  0.43647740047855176E-02  0.23422269620928034E-01
  0.40864991281456703E+02  0.77240323394488969E-01  0.32314790834873625E+00
  0.41633960356189625E+02  0.41077468037394472E-02  0.23007596926764944E-01
  0.94178534669663314E+01  0.12104850552992683E+00  0.26798998234020762E-01
  0.11777062256669002E+02  0.29627165968875335E-01  0.52361567537914915E-02
  0.28582676344608569E+02  0.15697179748156393E-01  0.53392196563748168E-03
  0.37419341957019995E+02  0.24195772807553751E-02  0.34086200533008329E-01
  0.40976427255853189E+02  0.10066771318840473E+00  0.43312764324529024E+00
  0.42319007113861012E+02  0.94256694719536561E-02  0.59526758165549747E-01
  0.94865825839612263E+01  0.15602381820206740E+00  0.34201503898898075E-01
  0.13332488982502204E+02  0.38420553391256197E-01  0.57762828026705808E-02
  0.28787180850771520E+02  0.15834855850973807E-01  0.19444088006780657E-03
  0.35991326778253097E+02  0.51952726398922782E-03  0.43913541892938918E-01
  0.40827129384282536E+02  0.95297873982217216E-01  0.38788913741099151E+00
  0.42904650702951180E+02  0.19625908047784458E-01  0.13258381532892469E+00
  0.94446935258001883E+01  0.11511436006204437E+00  0.25932288394442077E-01
  0.13773064508895963E+02  0.48904682947994473E-01  0.69067658271090623E-02
  0.27610897323036699E+02  0.32182117300680588E-01  0.69639679955845726E-03
  0.36034688544035774E+02  0.64044932472113645E-03  0.44450874630446419E-01
  0.40606312759090692E+02  0.26920195147176244E-01  0.11270811815043556E+00
  0.43276676627345495E+02  0.14186949125690237E-01  0.91385981552097761E-01
  0.92892331587678125E+01  0.94477481810224917E-01  0.22560441652299687E-01
  0.13228751539440850E+02  0.39176920397898489E-01  0.61166503565134476E-02
  0.25782031503015521E+02  0.26481162180426180E-01  0.18357517757972186E-02
  0.37006499807694730E+02  0.21478059307809242E-02  0.39265337750154318E-01
  0.40559681551694453E+02  0.24952646240905100E-01  0.99958561974375651E-01
  0.43350413181955886E+02  0.10233220778080278E-01  0.61468928647249080E-01
  0.87475114467406332E+01  0.46753363928658372E-01  0.12969828359874098E-01
  0.11595418273257945E+02  0.32088743940700749E-01  0.63189357239727901E-02
  0.24781878499969196E+02  0.15025692066079555E-01  0.17155139282674162E-02
  0.38272598747434479E+02  0.37635309178633137E-02  0.32923317028411850E-01
  0.40692139703145301E+02  0.46397402498955680E-01  0.16915192375533336E+00
  0.42944815590626895E+02  0.22152977371243672E-01  0.13184918533247017E+00
  0.78152697304726031E+01  0.25149482457563939E-01  0.77882445089846588E-02
  0.89007861059323332E+01  0.54376620968566228E-01  0.14786793481829876E-01
  0.24605577248301042E+02  0.13777253832660652E-01  0.18853206435992100E-02
  0.39822423085705793E+02  0.36356608211725000E-02  0.18181079647886029E-01
  0.40828625941431788E+02  0.10731983654375030E+00  0.36160142783460703E+00
  0.42069276369880868E+02  0.53044417414633118E-02  0.29184160885189402E-01
  0.92545724149971580E+01  0.11632518600280732E+00  0.25227071099637021E-01
  0.92545724149971882E+01  0.11599402484567750E+00  0.25164165984680117E-01
  0.29800860791952722E+02  0.85358606330365842E-02  0.27358132636115697E-03
  0.39089031573017948E+02  0.29260883901277286E-02  0.24561128120048573E-01
  0.41030158276965302E+02  0.67345614534453063E-01  0.29781144465313347E+00
  0.41030158276965309E+02  0.68944967544594421E-01  0.30423766981008221E+00
  0.93186550581752456E+01  0.10200808400925945E+00  0.22432284595931377E-01
  0.10051626835705630E+02  0.62034854359529032E-01  0.12638603465560143E-01
  0.31153725138393071E+02  0.57149942819535136E-02  0.44668327449323597E-04
  0.37349095762923355E+02  0.12832156639354917E-02  0.38517873351064311E-01
  0.41118573462710415E+02  0.30254915011351715E-01  0.13093624087612035E+00
  0.41571349417464972E+02  0.38249183714304624E-02  0.20698668710197852E-01
  0.94158695816282947E+01  0.12094087497161710E+00  0.26480849670680533E-01
  0.11845624043685728E+02  0.29171064439779557E-01  0.51268722306653958E-02
  0.30734672772211390E+02  0.69489291643472706E-02  0.45832502086918578E-05
  0.36054112484771515E+02  0.10765861278275342E-03  0.49088776086710043E-01
  0.41009338807522624E+02  0.80753854184738211E-01  0.35420364982337693E+00
  0.42322132021028736E+02  0.94768978251235196E-02  0.60141078987638784E-01
  0.94865825839612334E+01  0.15602381820206260E+00  0.34201503898896951E-01
  0.13336830397999705E+02  0.38349424352523136E-01  0.57642123349011956E-02
  0.28797005926561301E+02  0.15777201324801964E-01  0.19117884243713916E-03
  0.35987496850211976E+02  0.51339442236870904E-03  0.43802212675158436E-01
  0.40827129384282536E+02  0.95297873982217118E-01  0.38788913741099185E+00
  0.42899920443532089E+02  0.19580207342151473E-01  0.13234903833368461E+00
  0.94253065159998020E+01  0.12003872215490745E+00  0.27957109358199131E-01
  0.13488550295190135E+02  0.34730732901087004E-01  0.54327903905891433E-02
  0.26948382290158495E+02  0.38810164039955554E-01  0.16169253428675780E-02
  0.36693810242995824E+02  0.15491758010722698E-02  0.39184051430537707E-01
  0.40766877390212535E+02  0.79197897016785132E-01  0.31099012515340696E+00
  0.43055784697356550E+02  0.24220885608736101E-01  0.15965443504037924E+00
  0.89588177082989571E+01  0.54620168840480501E-01  0.14642324621989493E-01
  0.11873680815936810E+02  0.28196843328822926E-01  0.56698578248016154E-02
  0.26612589587957615E+02  0.41198476993846461E-01  0.23378384396805728E-02
  0.37661735184278051E+02  0.28731632234284699E-02  0.36500313561171650E-01
  0.40862574847297445E+02  0.85324941082097427E-01  0.31155191416885403E+00
  0.42683172932402307E+02  0.18130381858760886E-01  0.10759795661282105E+00
  0.80828645503218048E+01  0.31048895505435187E-01  0.94371401838414214E-02
  0.91677664943643844E+01  0.62675423518558745E-01  0.16570797602781285E-01
  0.27356277655262790E+02  0.32090241534369381E-01  0.15425601959557487E-02
  0.38765445638413802E+02  0.28712963848695461E-02  0.26264594639632426E-01
  0.40993784312625550E+02  0.10281017639245101E+00  0.36966320273184228E+00
  0.41847525433094376E+02  0.50584590523035508E-02  0.24608562636298254E-01
  0.92649847966119783E+01  0.10208812920169258E+29  0.21331015532715342E+28
  0.92649847966120014E+01  0.11160999943291579E+00  0.24419107823378600E-01
  0.32349498402940625E+02  0.10837479999664070E+29  0.13033192889588542E-31
  0.37205764589577257E+02  0.16034357901242084E-33  0.45718547985011869E-01
  0.41199366162526182E+02  0.15083305732778582E+28  0.72187208437165186E+28
  0.41199366162526189E+02  0.10636291068530201E+26  0.54047924788100932E+27
  0.93186550581752350E+01  0.10200808400925909E+00  0.22432284595931325E-01
  0.10052260129101096E+02  0.62008801526769700E-01  0.12632811868877995E-01
  0.31153492024661777E+02  0.57153859045180090E-02  0.44679396757719822E-04
  0.37349085654041403E+02  0.12831472200332396E-02  0.38518289918524039E-01
  0.41118573462710437E+02  0.30254915011335017E-01  0.13093624087605027E+00
  0.41571380065053255E+02  0.38252444824139124E-02  0.20699446403775499E-01
  0.94178534669663154E+01  0.12104850552992327E+00  0.26798998234019950E-01
  0.11778603594766313E+02  0.29612840931543219E-01  0.52334147315773859E-02
  0.28581542156734972E+02  0.15708650736089728E-01  0.53474741733817305E-03
  0.37420632057644767E+02  0.24219885863091353E-02  0.34080793883110680E-01
  0.40976427255853174E+02  0.10066771318841303E+00  0.43312764324532582E+00
  0.42318203408510023E+02  0.94037235751068468E-02  0.59385309541483543E-01
  0.93838616909334558E+01  0.10277220274024437E+00  0.23976790273128514E-01
  0.12917537505491113E+02  0.35025507805734532E-01  0.58026370116883779E-02
  0.26359480862204556E+02  0.39771819989483516E-01  0.30135968857815309E-02
  0.37549764912959169E+02  0.29504748673321386E-02  0.33753721219760537E-01
  0.40924690898594761E+02  0.11933958508623027E+00  0.48855231807930138E+00
  0.42739492122983130E+02  0.19817023255701338E-01  0.12619320721293659E+00
  0.89510375752227382E+01  0.54633402993881856E-01  0.14572697139527866E-01
  0.11837597324957446E+02  0.28213639809818253E-01  0.57414379194174869E-02
  0.26282077565676744E+02  0.38086857557700686E-01  0.26747654019180721E-02
  0.37975720198965867E+02  0.36711435820593638E-02  0.36978592494459818E-01
  0.40989689096904947E+02  0.10099712302640051E+00  0.38717426327114635E+00
  0.42496837280898220E+02  0.13560455428873993E-01  0.81296767414207396E-01
  0.81286731509100889E+01  0.31521774161781535E-01  0.95303252307999669E-02
  0.92089530947207443E+01  0.69568264268015892E-01  0.18347152258498148E-01
  0.27789629011282670E+02  0.27564224946900497E-01  0.10743680080129154E-02
  0.38581586263111966E+02  0.27775730052581613E-02  0.30009263635527923E-01
  0.41096462586506135E+02  0.55851011234560724E-01  0.19755370985459791E+00
  0.41757581951623003E+02  0.50257415526951199E-02  0.24233906418320638E-01
  0.92504738385741838E+01  0.11277351881887100E+00  0.24669524586181411E-01
  0.99682505382305493E+01  0.65199947494867516E-01  0.13312448853546878E-01
  0.27287513173548913E+02  0.29714444473349842E-01  0.22987356407195331E-02
  0.39520693610310985E+02  0.43647795463899412E-02  0.23420082307714345E-01
  0.40864991281456717E+02  0.77240323394485416E-01  0.32314790834872259E+00
  0.41634326505566868E+02  0.41093210857217500E-02  0.23017853079993222E-01
  0.91723154548744485E+01  0.66144432822485028E-01  0.15650896883640637E-01
  0.11414261528967671E+02  0.37278225043855910E-01  0.68434007474108324E-02
  0.24644314201285368E+02  0.13317991025190386E-01  0.21099535893779257E-02
  0.39230792496431839E+02  0.43995216779126115E-02  0.22563819358907659E-01
  0.40803091415972865E+02  0.99956089246815524E-01  0.39510033337755235E+00
  0.42444539300556663E+02  0.12867793677332991E-01  0.78959728525704057E-01
  0.87601490990607545E+01  0.47872847705945763E-01  0.12821522875542210E-01
  0.11278987468933289E+02  0.39941199564009607E-01  0.81267961814987001E-02
  0.24012082560664407E+02  0.11880326084470885E-01  0.18204647220919554E-02
  0.39218268653660353E+02  0.43578225124654181E-02  0.22544023169292479E-01