  0.00000000000000000E+00  0.00000000000000000E+00  0.00000000000000000E+00
  0.00000000000000000E+00  0.00000000000000000E+00  0.00000000000000000E+00
  0.00000000000000000E+00  0.00000000000000000E+00  0.00000000000000000E+00
  0.41099732667620366E+02  0.62149108961970949E-01  0.18423226791640987E+00
  0.41099732667620380E+02  0.62603401755118748E-01  0.18562578787401252E+00
  0.41099732667620401E+02  0.63365754326710780E-01  0.18796426547982814E+00
  0.27932333692487221E+01  0.98825699892453149E-03  0.40419614704095434E-03
  0.27932333692488878E+01  0.91223227806172655E-03  0.37271605496925553E-03
  0.66714437995523852E+01  0.83544258813903899E-02  0.31291134886706189E-02
  0.41071737831994234E+02  0.80511818598381843E-01  0.24536990385860230E+00
  0.41071737831994234E+02  0.77814143779848327E-01  0.23822564890494730E+00
  0.44116284831840410E+02  0.86784389513511508E-02  0.21273930992415389E-01
  0.51030361498594576E+01  0.35109033398685835E-02  0.13117671027891820E-02
  0.51030361498595207E+01  0.34161595582576829E-02  0.12766340014040774E-02
  0.12953500857821384E+02  0.30926212797922247E-01  0.78296397157111442E-02
  0.40961406016648034E+02  0.13206303870394953E+00  0.42901820746896724E+00
  0.40961406016648034E+02  0.13145446353130749E+00  0.42705235906717848E+00
  0.44014228665768989E+02  0.33410138539750776E-02  0.90037444706530315E-02
  0.65923130783661117E+01  0.82799336471968618E-02  0.28165941848563810E-02
  0.65923130783661845E+01  0.81665592899523888E-02  0.27834237561428889E-02
  0.18686707758693817E+02  0.33582882897577526E-02  0.96481096976622216E-03
  0.40826914471099499E+02  0.11324012754943365E+00  0.36702874344034558E+00
  0.40826914471099521E+02  0.11089583386763682E+00  0.35913909747018358E+00
  0.43258276310096477E+02  0.20178891126919701E-01  0.90253404559972661E-01
  0.72949177796101488E+01  0.18095947736596032E-01  0.58124315945333183E-02
  0.72949177796102056E+01  0.16564434885317444E-01  0.53243510899176295E-02
  0.23665628167605572E+02  0.10541205243583339E-01  0.17838928814687101E-02
  0.40847867253061168E+02  0.99169598372604834E-01  0.33306252211074344E+00
  0.40847867253061175E+02  0.96640872736435082E-01  0.32388334562875987E+00
  0.41688381923538486E+02  0.41605527774925509E-02  0.23041726832657636E-01
  0.75650810924244114E+01  0.30471785214098702E-01  0.96653263720268435E-02
  0.75650810924244452E+01  0.28467129154005240E-01  0.90298996834467793E-02
  0.27323415841027078E+02  0.31755623492215633E-01  0.17508561210054520E-02
  0.39873250341360709E+02  0.24978000284450021E-02  0.19565251438181136E-01
  0.41034414033619996E+02  0.78194055167412707E-01  0.28071232287684150E+00
  0.41034414033620010E+02  0.82170291838827930E-01  0.29376793130586459E+00
  0.76469346245982406E+01  0.47637874316752003E-01  0.15196502591971613E-01
  0.76469346245982921E+01  0.46778068819494791E-01  0.14916711180694367E-01
  0.28754351784299775E+02  0.36002924828523103E-01  0.12608652414683691E-02
  0.38996639081948508E+02  0.29996988082092030E-02  0.47494984983557940E-01
  0.41147667311100655E+02  0.25982070850499403E-01  0.89514620196412112E-01
  0.41147667311100669E+02  0.25917502112168148E-01  0.89275767325035976E-01
  0.40345302208223828E+01  0.14706959756618160E-02  0.58077475836426108E-03
  0.40345302208223899E+01  0.14649142067855846E-02  0.57836848013685736E-03
  0.66662003763578994E+01  0.82706613464254130E-02  0.31335423104876131E-02
  0.41097004918639549E+02  0.63669417963350156E-01  0.19559173814749459E+00
  0.41097004918639563E+02  0.64514413406151383E-01  0.19827739072903702E+00
  0.44075059318069776E+02  0.11719819458356061E-01  0.28253595753489551E-01
  0.57383487188169751E+01  0.49954621760611127E-02  0.18320714594045136E-02
  0.58645139289493313E+01  0.50856521269716333E-02  0.18333557595610383E-02
  0.11532845588551947E+02  0.30117834654298785E-01  0.81806582451921395E-02
  0.40968211760613684E+02  0.12497570441595705E+00  0.41520404901471486E+00
  0.41053027192444098E+02  0.76888889445743028E-01  0.25222752215638139E+00
  0.43988808941671437E+02  0.40509264492120901E-02  0.10708958065520904E-01
  0.71388055508678407E+01  0.13135674453983269E-01  0.42355609576876447E-02
  0.73459299754775040E+01  0.17528962826095482E-01  0.57358456837008458E-02
  0.16917195586847942E+02  0.22431698199464620E-02  0.71091996809161757E-03
  0.40770364321473394E+02  0.90083975374344386E-01  0.30464716614127496E+00
  0.40951455133081119E+02  0.13211184110291282E+00  0.44476006608809482E+00
  0.43442029417307054E+02  0.88203429442324371E-02  0.34948637476029706E-01
  0.77458657867160801E+01  0.23228456250688940E-01  0.70404250896413988E-02
  0.84300504455011698E+01  0.34536543724870125E-01  0.10185605861303080E-01
  0.21823680072524109E+02  0.65094473127896846E-02  0.14047363467438736E-02
  0.40580826378889505E+02  0.29103808985018301E-01  0.10312465925466265E+00
  0.40764226620950261E+02  0.83475454452913544E-01  0.29199098901986048E+00
  0.42429706552017663E+02  0.13489295482222104E-01  0.74929146364046087E-01
  0.80015552904716092E+01  0.30008294354690903E-01  0.90350341848562301E-02
  0.89777981837807932E+01  0.55410570121582646E-01  0.15265617813489504E-01
  0.25734401833369425E+02  0.23824362779831038E-01  0.23304617975627860E-02
  0.39591644895490191E+02  0.41989922258322022E-02  0.22757255947578318E-01
  0.40968863355774559E+02  0.11771378201421977E+00  0.42722785331780849E+00
  0.41757930754083368E+02  0.45502845725883360E-02  0.24130662854437806E-01
  0.81286731509100836E+01  0.31520081979452212E-01  0.95298305968862691E-02
  0.91845855581732376E+01  0.64414763065531649E-01  0.17090112942142549E-01
  0.27850840915070712E+02  0.27009363382697067E-01  0.10223277423775943E-02
  0.38591964187781080E+02  0.27680049334125110E-02  0.29815324546886221E-01
  0.41096462586506114E+02  0.58864308415764406E-01  0.20587463427225547E+00
  0.41712553209879061E+02  0.46784776821646046E-02  0.22989963519999337E-01
  0.80828645503217604E+01  0.31047327879094214E-01  0.94366832214356593E-02
  0.91288623725791425E+01  0.61338402417560937E-01  0.16292560522113392E-01
  0.27412959913614252E+02  0.31266692455597066E-01  0.14732068945883337E-02
  0.38780179517633862E+02  0.28739508588278393E-02  0.26017216428078548E-01
  0.40993784312625550E+02  0.10278067454442980E+00  0.36956817405450132E+00
  0.41805265304773449E+02  0.49231585173722019E-02  0.24171142215859757E-01
  0.78152697304724343E+01  0.25147972200929299E-01  0.77878228786052925E-02
  0.89373971561311603E+01  0.55228331715948487E-01  0.14965307321188255E-01
  0.24582522516901403E+02  0.13701722899323197E-01  0.18801162443684240E-02
  0.39823133926769607E+02  0.36146952490266364E-02  0.18205275345098321E-01
  0.40828625941431753E+02  0.10735240157131930E+00  0.36172140267693759E+00
  0.42074319278607653E+02  0.53697356639819289E-02  0.29355202665994645E-01
  0.71635225454342466E+01  0.13652298005416223E-01  0.44967322657535466E-02
  0.86181645482939686E+01  0.41299362363924133E-01  0.11642194156120285E-01
  0.20216489705030181E+02  0.44268199470777966E-02  0.11112718787028714E-02
  0.40567399992575368E+02  0.28571414453630078E-01  0.10096464250509959E+00
  0.40801208708672384E+02  0.11266051949896365E+00  0.36849781927912589E+00
  0.42866400879258904E+02  0.23472577531930168E-01  0.12162892670046731E+00
  0.58234541453867443E+01  0.50010017482697297E-02  0.18204415451617689E-02
  0.77558421165008760E+01  0.23204576468807848E-01  0.72664609068506508E-02
  0.15133807881510373E+02  0.17018870010846140E-02  0.58329416365711676E-03
  0.40892868308449309E+02  0.93345990731760767E-01  0.29898869488851304E+00
  0.41018114452142548E+02  0.91156155250280396E-01  0.31118712616660393E+00
  0.43595665397009270E+02  0.68031964303541196E-02  0.21410808315784718E-01
  0.39171564026263557E+01  0.13912288228823562E-02  0.54999968459473910E-03
  0.58600974605800031E+01  0.51221802366979603E-02  0.18779459822430391E-02
  0.10065725615994676E+02  0.54185096914880181E-01  0.15853722487061215E-01
  0.40991040517849399E+02  0.11309017759355179E+00  0.35837112787718378E+00
  0.41486010734530538E+02  0.60590444405921222E-02  0.19968529563248853E-01
  0.43679665052898017E+02  0.88507627743768889E-02  0.24252595344082657E-01
  0.71495876723873373E+01  0.13479893325078436E-01  0.43448602261309055E-02
  0.71495876723873852E+01  0.13453094769626396E-01  0.43368747119849295E-02
  0.13159291974692747E+02  0.33230265873482441E-01  0.85392851046786501E-02
  0.40823691972834574E+02  0.11095039849723577E+00  0.37066935672743173E+00
  0.40823691972834588E+02  0.11240047996518496E+00  0.37566044776677110E+00
  0.44091599202117749E+02  0.75781583190784024E-02  0.19121252553021974E-01
  0.80667468329085992E+01  0.31414881727789112E-01  0.90811236550690077E-02
  0.85368434922497212E+01  0.38133541442742336E-01  0.10663446350067954E-01
  0.16858633006524808E+02  0.21742994750279148E-02  0.72233900737111577E-03
  0.40622439010980685E+02  0.30919688290626364E-01  0.11493096032667970E+00
  0.40741887218842415E+02  0.64682060746458575E-01  0.22881703467589073E+00
  0.43661799419251111E+02  0.84847545987673575E-02  0.25311161715387935E-01
  0.85094513593976515E+01  0.38323352071326484E-01  0.10371102165948316E-01
  0.10101295438320081E+02  0.57931676021353191E-01  0.13275931700153976E-01
  0.20666988514262481E+02  0.48950050759881958E-02  0.12329587788053823E-02
  0.40432864700888686E+02  0.11209141979249646E-01  0.40701030082447756E-01
  0.40634636787983652E+02  0.32035976845623364E-01  0.12281917403310158E+00
  0.42816634371244007E+02  0.23422414895439767E-01  0.12363508881514304E+00
  0.87601490990607012E+01  0.47876340635246047E-01  0.12822472372034210E-01
  0.11290082812255390E+02  0.39692834175913481E-01  0.80745185293784709E-02
  0.24002384120469365E+02  0.11846840416336738E-01  0.18191112583318212E-02
  0.39221783249771818E+02  0.43689960026627910E-02  0.22557756811801079E-01
  0.40864316122321291E+02  0.83689539033629801E-01  0.31183898734477278E+00
  0.42458340101408957E+02  0.13202490135361730E-01  0.79622183537943828E-01
  0.89510375752227542E+01  0.54638253098607606E-01  0.14574107174846895E-01
  0.11877656373794949E+02  0.28035765841381722E-01  0.56969143925505780E-02
  0.26254023168264400E+02  0.37073879465840037E-01  0.26353838515219699E-02
  0.37984224276888938E+02  0.36853508661461071E-02  0.36898784790559545E-01
  0.40989689096904968E+02  0.10096596092996286E+00  0.38706838709178698E+00
  0.42495400547996525E+02  0.13549066421100583E-01  0.81278045665036533E-01
  0.89588177082989393E+01  0.54624822609702854E-01  0.14643696543190974E-01
  0.11874540250023525E+02  0.28187258098112091E-01  0.56675254385821269E-02
  0.26623716343427738E+02  0.40988504611045404E-01  0.23141827670987089E-02
  0.37660069693518651E+02  0.28683793756778013E-02  0.36480552331872675E-01
  0.40862574847297424E+02  0.85338534881432018E-01  0.31160511684299941E+00
  0.42677464099433664E+02  0.17815991981350768E-01  0.10577899071379823E+00
  0.87475114467406545E+01  0.46756393328797517E-01  0.12970684532894898E-01
  0.11550219498373025E+02  0.33221129829890436E-01  0.65296945559100801E-02
  0.24841212061408218E+02  0.15303079354429615E-01  0.17265267173810816E-02
  0.38277872074658966E+02  0.37753462963304083E-02  0.32802323623186136E-01
  0.40692139703145287E+02  0.46394063313881156E-01  0.16913540526725721E+00
  0.42918007295419841E+02  0.21585092519017315E-01  0.12928789197732138E+00
  0.82607089249344892E+01  0.32466736368457164E-01  0.96979737324412712E-02
  0.11234305370043948E+02  0.41653992968636186E-01  0.81791874782245443E-02
  0.21528210223872065E+02  0.62423901005691507E-02  0.13111214464060323E-02
  0.39352474587463178E+02  0.44726178791317872E-02  0.23143275383430643E-01
  0.40683949501204310E+02  0.45179625847116288E-01  0.15861925129595278E+00
  0.43126453186322522E+02  0.28640438094961338E-01  0.16441251019546593E+00
  0.72386937015772048E+01  0.15712576112345597E-01  0.51844907009335516E-02
  0.10276265232135017E+02  0.50964874646646084E-01  0.11583135889844562E-01
  0.17930435894850181E+02  0.28610697843057726E-02  0.84788804781461640E-03
  0.40479133095548129E+02  0.16185568085296795E-01  0.59316272493908299E-01
  0.40792780846200721E+02  0.10907084236390591E+00  0.35564061076850079E+00
  0.43252561579358726E+02  0.19655924915801769E-01  0.96038986459280218E-01
  0.86739581480188885E+01  0.44900984620941532E-01  0.11572998164487933E-01
  0.86739581480189170E+01  0.44920670186311344E-01  0.11570748893615574E-01
  0.19371093498807173E+02  0.36266988774450921E-02  0.10913920838829232E-02
  0.40479528400683343E+02  0.15243113689825512E-01  0.61469659668549254E-01
  0.40479528400683343E+02  0.15461707481862557E-01  0.62279572182559119E-01
  0.43547714982112289E+02  0.62863114315324887E-02  0.20106882687722982E-01
  0.89519158737217008E+01  0.56368561218827662E-01  0.13694159655954672E-01
  0.96696085114774579E+01  0.64278592882202210E-01  0.14043149302242512E-01
  0.22275807924549728E+02  0.67889156855037748E-02  0.16114080911922848E-02
  0.40386759041771377E+02  0.87961414798418489E-02  0.35495423803011995E-01
  0.40548627593721250E+02  0.23357599640727561E-01  0.97670184880322961E-01
  0.42713901952167838E+02  0.22176776360085571E-01  0.11037188730548750E+00
  0.91723154548743189E+01  0.66133376122937834E-01  0.15648740627668540E-01
  0.11418479930641048E+02  0.37153574149742817E-01  0.68214651674942074E-02
  0.24646058364221915E+02  0.13325358977441469E-01  0.21105947445938088E-02
  0.39232647297437204E+02  0.44055993933978929E-02  0.22569387277762771E-01
  0.40803091415972837E+02  0.99974292894083952E-01  0.39518147751941829E+00
  0.42440677353851726E+02  0.12799325552072374E-01  0.78603297354739046E-01
  0.93838616909334274E+01  0.10275835840162778E+00  0.23973978661852070E-01
  0.12936066313006643E+02  0.35325418942946420E-01  0.58392116154608953E-02
  0.26336100670991247E+02  0.39131114661368753E-01  0.29933262376775792E-02
  0.37555987927792273E+02  0.29695881006013671E-02  0.33811465121298963E-01
  0.40924690898594761E+02  0.11925929785455612E+00  0.48819136613264713E+00
  0.42742833306183257E+02  0.19925687589844445E-01  0.12682179540405511E+00
  0.94253065159998073E+01  0.12002975211141793E+00  0.27955328634480667E-01
  0.13500659758366151E+02  0.34512796538987679E-01  0.53942964030375840E-02
  0.26912760157959436E+02  0.38832659702340615E-01  0.16568926834935873E-02
  0.36701182082042919E+02  0.15660070785312450E-02  0.39200191895193061E-01
  0.40766877390212521E+02  0.79194160833775451E-01  0.31097930327331086E+00
  0.43067985368789074E+02  0.24900003511918831E-01  0.16400143622736940E+00
  0.92892331587678747E+01  0.95562769869029493E-01  0.22806073261357820E-01
  0.13206259682696080E+02  0.39152794653224680E-01  0.61252048803005056E-02
  0.25807290118062848E+02  0.26935426337252655E-01  0.18512558003824851E-02
  0.37007291761083913E+02  0.21483604761060159E-02  0.39261039344023745E-01
  0.40559681551694467E+02  0.24954059344430415E-01  0.99961099783682228E-01
  0.43341564406967251E+02  0.10489828540831065E-01  0.63684141407392300E-01
  0.89882124408746584E+01  0.55237683121107030E-01  0.14624763895815504E-01
  0.12615309022321995E+02  0.30852290192402081E-01  0.52278467218925999E-02
  0.23522195763445914E+02  0.10578391890190945E-01  0.15234573986450011E-02
  0.37983983981784220E+02  0.39026461261704609E-02  0.36023748991445559E-01
  0.40545165537460647E+02  0.24441346061350667E-01  0.93410422577078239E-01
  0.43433217493383125E+02  0.75814170767831077E-02  0.40604230182600426E-01
  0.91112792443191086E+01  0.64332777617663484E-01  0.14617429909629318E-01
  0.91112792443191317E+01  0.64263967780467404E-01  0.14620825881140661E-01
  0.25047447495664098E+02  0.14606480500457517E-01  0.23920613101265859E-02
  0.40635923831498907E+02  0.30115577640578602E-01  0.12898568503679597E+00
  0.40635923831498928E+02  0.30914793878294440E-01  0.13197483168687413E+00
  0.41759763749990363E+02  0.49904774065014316E-02  0.23942805779441325E-01
  0.92504738385741980E+01  0.12031974475655062E+00  0.26246345847150725E-01
  0.99689952308690621E+01  0.65180144787468267E-01  0.13307266825935117E-01
  0.27288095198152352E+02  0.29711895377152797E-01  0.22978378205320833E-02
  0.39520489630120686E+02  0.43645037237961858E-02  0.23420961986558634E-01
  0.40864991281456703E+02  0.77240250088283932E-01  0.32314838554168479E+00
  0.41633960356189625E+02  0.38033045055412894E-02  0.21832056124335322E-01
  0.94178534669663136E+01  0.12103876769902133E+00  0.26797146022362592E-01
  0.11777062256668998E+02  0.32426874166011276E-01  0.56367655000416905E-02
  0.28582676344608569E+02  0.15697190068973872E-01  0.53391404481447355E-03
  0.37419341957019995E+02  0.24194801220181130E-02  0.34084972367670177E-01
  0.40976427255853160E+02  0.10065381308755000E+00  0.43310643876181393E+00
  0.42319007113861012E+02  0.94250958827002112E-02  0.59521956688649208E-01
  0.94865825839612352E+01  0.15257592698744626E+00  0.33460682494536070E-01
  0.13332488982502211E+02  0.38408468856904708E-01  0.57743489410868667E-02
  0.28787180850771524E+02  0.15940589811991836E-01  0.19642439364149684E-03
  0.35991326778253097E+02  0.51952567505082390E-03  0.43914892054392848E-01
  0.40827129384282536E+02  0.95326365529819948E-01  0.38801609183789060E+00
  0.42904650702951180E+02  0.19626275023768014E-01  0.13258496976141829E+00
  0.94446935258002096E+01  0.11510976499801455E+00  0.25931474621323107E-01
  0.13773064508895979E+02  0.49030298468697893E-01  0.69245594901023366E-02
  0.27610897323036699E+02  0.32186384728925113E-01  0.69642902535183070E-03
  0.36034688544035767E+02  0.64045242710795817E-03  0.44452708483892739E-01
  0.40606312759090677E+02  0.26920569150367356E-01  0.11270585161429775E+00
  0.43276676627345502E+02  0.14114201081324851E-01  0.91087040620696502E-01
  0.92545724149971456E+01  0.12851334639473475E+00  0.27765067188167628E-01
  0.92545724149971633E+01  0.12910035655473676E+00  0.27876540084416136E-01
  0.29800860791952729E+02  0.85349500634925978E-02  0.27357318848454968E-03
  0.39089031573017948E+02  0.29259194493465607E-02  0.24559730327762392E-01
  0.41030158276965302E+02  0.72257351940512665E-01  0.32100571671228728E+00
  0.41030158276965302E+02  0.70308342318210496E-01  0.31316762644647939E+00
  0.93186550581752456E+01  0.10198736339785658E+00  0.22428242264222822E-01
  0.10051626835705630E+02  0.61992156009270188E-01  0.12629819850994818E-01
  0.31153725138393071E+02  0.57149950037504891E-02  0.44667882469274810E-04
  0.37349095762923355E+02  0.12831483060666527E-02  0.38516048335558224E-01
  0.41118573462710430E+02  0.30746071397977595E-01  0.13258782236821801E+00
  0.41571349417464972E+02  0.37544710415049077E-02  0.20415845837269610E-01
  0.94158695816282894E+01  0.12093068816693642E+00  0.26478928266265075E-01
  0.11845624043685737E+02  0.29164578685981123E-01  0.51257707253658698E-02
  0.30734672772211397E+02  0.69485616284950579E-02  0.45831710402070966E-05
  0.36054112484771515E+02  0.10765920345594300E-03  0.49091064384792882E-01
  0.41009338807522631E+02  0.80800932173548265E-01  0.35446608757375603E+00
  0.42322132021028736E+02  0.94763397086974968E-02  0.60136318128867300E-01
  0.92649847966119800E+01  0.13257248653028508E+00  0.28814887417455144E-01
  0.92649847966120120E+01  0.13378317735791573E+00  0.29045197514638108E-01
  0.32349498402940625E+02  0.23986628834841022E-01  0.52891731814528518E-34
  0.37205764589577257E+02  0.16033666804178781E-33  0.68870250335945848E-01
  0.41199366162526182E+02  0.11719052716499898E-01  0.52809228832295343E-01
  0.41199366162526189E+02  0.11800686703479616E-01  0.53191640481750187E-01
  0.67217787776138636E+01  0.88956001476492869E-02  0.30151398512628155E-02
  0.83173476619290128E+01  0.33009639592727985E-01  0.97179718188882633E-02
  0.14802729451505801E+02  0.18774523469195447E-02  0.63884251639111285E-03
  0.40807376150381089E+02  0.11445041084203390E+00  0.37734924866220976E+00
  0.41006098498097614E+02  0.98547083306032957E-01  0.34304605230062352E+00
  0.43651146547249034E+02  0.82318409912161706E-02  0.24543519871704753E-01
  0.78856632372339499E+01  0.27483601966887899E-01  0.84118773253138625E-02
  0.97229902730457578E+01  0.64745475193074081E-01  0.15412947404842014E-01
  0.18877291350795435E+02  0.35215843125327583E-02  0.99722744639552411E-03
  0.40425544829675843E+02  0.11253769741841470E-01  0.40719514529086842E-01
  0.40841818051904617E+02  0.10416937298167343E+00  0.34553676542689427E+00
  0.43105759315868347E+02  0.31307922356925186E-01  0.16110363979811415E+00
  0.85190249204587172E+01  0.37548493403707063E-01  0.10613451255015132E-01
  0.10496292915902803E+02  0.43556807518790069E-01  0.96596731911469773E-02
  0.22845509088184194E+02  0.82490589533062136E-02  0.15008168730693701E-02
  0.39523097180126662E+02  0.50805490680566430E-02  0.22943949666684560E-01
  0.40797412462900986E+02  0.10701351140176303E+00  0.37125366001775284E+00
  0.42658151748802219E+02  0.17221247466940533E-01  0.97721641100787057E-01
  0.88110596040669087E+01  0.50416931723127466E-01  0.13827250670571212E-01
  0.10975709439888346E+02  0.42466774414900557E-01  0.89944952815552270E-02
  0.25852196120710577E+02  0.26603526239142219E-01  0.22411854682729943E-02
  0.38405183754239005E+02  0.36040538747030091E-02  0.31088224790954071E-01
  0.40925347056331930E+02  0.12530214588481689E+00  0.46774046449438877E+00
  0.42431070038995450E+02  0.13680022436555462E-01  0.78655786751587436E-01
  0.89222262019018341E+01  0.54956865860352630E-01  0.14913351113459459E-01
  0.11148412961414929E+02  0.42438825465479245E-01  0.89305830196689598E-02
  0.27009557967508762E+02  0.37610871396369518E-01  0.17980499458463317E-02
  0.37865856581580417E+02  0.32446220673539379E-02  0.38330054541803091E-01
  0.41008910172043315E+02  0.92408882442678822E-01  0.34593805362466007E+00
  0.42380948113649325E+02  0.12404814569547130E-01  0.70163475338498607E-01
  0.88638123439416372E+01  0.53939311683949304E-01  0.14113721916322456E-01
  0.96103376368172864E+01  0.61541209179583674E-01  0.14007697055941648E-01
  0.19764279906400880E+02  0.38584393253783518E-02  0.10950100886682834E-02
  0.40303321252457621E+02  0.82257493433166729E-02  0.32459397965859428E-01
  0.40743970182562641E+02  0.65836728520267285E-01  0.23814565709383617E+00
  0.43143679950133524E+02  0.31428000111577682E-01  0.15521334542967596E+00
  0.93670355340885028E+01  0.94989053185128722E-01  0.22256021477226412E-01
  0.11021428536055952E+02  0.44016249597967565E-01  0.85750660428684303E-02
  0.22620014277849592E+02  0.75697078707951245E-02  0.15648578730398418E-02
  0.39471768953720321E+02  0.50670095016958905E-02  0.23210896261724828E-01
  0.40823545661907787E+02  0.10567573385821370E+00  0.38725199421484896E+00
  0.42730863235237720E+02  0.20656048916588274E-01  0.12029082937095771E+00
  0.96112329751847465E+01  0.61332512758271944E-01  0.14146677165655137E-01
  0.12348811549965419E+02  0.29433899247528768E-01  0.54526727061286603E-02
  0.25038833345390742E+02  0.16056342888832092E-01  0.18796925609912668E-02
  0.38070472971205220E+02  0.42127826103025082E-02  0.34983273526179484E-01
  0.40937099574478239E+02  0.12213272029658694E+00  0.48663235940154964E+00
  0.42752800828816611E+02  0.20180762616088706E-01  0.12734620917905343E+00
  0.97589850481730274E+01  0.66379257913030565E-01  0.15150130553493617E-01
  0.12989806471483703E+02  0.35640723137842695E-01  0.62277996812623790E-02
  0.26423723791805550E+02  0.43005270531537090E-01  0.24937778681876628E-02
  0.37078068854002922E+02  0.22585228448246323E-02  0.38361935295580234E-01
  0.40939609737261868E+02  0.12128228990181583E+00  0.48590360184311765E+00
  0.42882534209204778E+02  0.20207375396900852E-01  0.13069916650007599E+00
  0.97020941450935023E+01  0.64693330321333051E-01  0.14911135342777061E-01
  0.12840288217726002E+02  0.33153892318509515E-01  0.58266621103039672E-02
  0.26052287390205706E+02  0.31738713568565523E-01  0.20861576557240379E-02
  0.37140358724225450E+02  0.23219784944603049E-02  0.37482233449725351E-01
  0.40815431780645845E+02  0.10431245624678454E+00  0.39336502845417382E+00
  0.43035259633978292E+02  0.23589469405443292E-01  0.15247923332744209E+00
  0.94558265383383571E+01  0.10707350023839786E+00  0.25658958309857923E-01
  0.12251025121670173E+02  0.29525791306128455E-01  0.53774114676881819E-02
  0.24005422452428345E+02  0.12206654529983599E-01  0.16646992166551239E-02
  0.38049311039746463E+02  0.40076915000945221E-02  0.35269764803461438E-01
  0.40725077588790562E+02  0.56595668201206928E-01  0.21241662311720202E+00
  0.43156931154643637E+02  0.27678103245614580E-01  0.17517502202272972E+00
  0.88900431296837041E+01  0.53118679492242978E-01  0.14476959950130673E-01
  0.11418154077456231E+02  0.37462570675363099E-01  0.71320444529269699E-02
  0.21245262614619925E+02  0.58089405256239682E-02  0.12977571990380173E-02
  0.39323953647134132E+02  0.44411322551174736E-02  0.23056285554609843E-01
  0.40756913827598098E+02  0.77675935793757200E-01  0.27354897104914627E+00
  0.43123133553796045E+02  0.28429046020064977E-01  0.16587904088440567E+00
  0.97084749562566959E+01  0.66477822370551040E-01  0.14015253688421459E-01
  0.99987072237106958E+01  0.64846751946786449E-01  0.13684185140608707E-01
  0.24723703339491696E+02  0.13362519125518561E-01  0.22121110187891153E-02
  0.39681349383669271E+02  0.45626040866095880E-02  0.20975571063100936E-01
  0.40820715567119400E+02  0.10126687350121577E+00  0.39939376853995651E+00
  0.42233422538179774E+02  0.77729974945325462E-02  0.44531881653467366E-01
  0.99672278464913671E+01  0.67041552979049984E-01  0.13898096976767941E-01
  0.11699019681393672E+02  0.30362393346619405E-01  0.56114664827570989E-02
  0.26520515727447648E+02  0.39196595517455537E-01  0.33418833651969633E-02
  0.38017116553061769E+02  0.42058375384093610E-02  0.35488999944065923E-01
  0.40987107287546927E+02  0.97521250838663795E-01  0.41129325238102532E+00
  0.42487124022676511E+02  0.12740213307973357E-01  0.83437289428801256E-01
  0.10109038523663392E+02  0.61319904936598099E-01  0.12699761030612914E-01
  0.13295268642211580E+02  0.38438006957241963E-01  0.61288022003644091E-02
  0.27521937868790946E+02  0.31421429047062931E-01  0.10952175635885397E-02
  0.36444498785746461E+02  0.12632919321974223E-02  0.38597153776120836E-01
  0.40953173596993047E+02  0.11305314687271723E+00  0.48307087297971169E+00
  0.42899288009577077E+02  0.19601628809378858E-01  0.13265436180241189E+00
  0.10100866354898852E+02  0.61693140106218076E-01  0.12842082867844178E-01
  0.13792669311155056E+02  0.46629153241658450E-01  0.69998430001543700E-02
  0.27303444157659086E+02  0.36243177851134151E-01  0.96389042351951581E-03
  0.36017698205505972E+02  0.74641457986278565E-03  0.43131279097525885E-01
  0.40781440825916192E+02  0.87043787662358693E-01  0.35419646088201939E+00
  0.43197173646732310E+02  0.24477021126250349E-01  0.16702087641758442E+00
  0.99398382702121406E+01  0.67246145636010668E-01  0.14577693570737729E-01
  0.13289528303639912E+02  0.38720733885546373E-01  0.61125944352109019E-02
  0.25774754945156843E+02  0.26417808507902044E-01  0.18170677524546176E-02
  0.36782575148292921E+02  0.19120495292892906E-02  0.38668801337327099E-01
  0.40682325436544701E+02  0.40960568527620901E-01  0.16440629620292735E+00
  0.43328557913096837E+02  0.10906101089302732E-01  0.68398225293081871E-01
  0.98457755982769957E+01  0.69117011010664156E-01  0.13976745524040076E-01
  0.10310211217616160E+02  0.51134562632284546E-01  0.10550431563509585E-01
  0.29113790669318611E+02  0.12198312895107141E-01  0.38230382781910581E-03
  0.37980312936837912E+02  0.36026066652152422E-02  0.37654374799198767E-01
  0.41067767830697591E+02  0.64125047567486063E-01  0.27563035346291748E+00
  0.41853069538671924E+02  0.43560012844095809E-02  0.25823294569123405E-01
  0.10085000125207040E+02  0.63170446571256797E-01  0.12663181956656189E-01
  0.12038377857899748E+02  0.28930699842285419E-01  0.52198842408771083E-02
  0.29753332902754998E+02  0.10405182078468670E-01  0.10453018171866189E-03
  0.36190231865270292E+02  0.65116251763522369E-03  0.45416777233814216E-01
  0.41064715407094454E+02  0.62505774792161767E-01  0.27279103131577664E+00
  0.42452637992549839E+02  0.12294393511547470E-01  0.81585640332537873E-01
  0.10168796384473234E+02  0.59133892609876053E-01  0.11883856304708547E-01
  0.13548538896888189E+02  0.34259523095345495E-01  0.52817509430140332E-02
  0.28979853079210415E+02  0.15622024535400413E-01  0.61629875324528100E-04
  0.35434878816148441E+02  0.78207382865208414E-04  0.34741810248763758E-01
  0.40899059382388288E+02  0.80338352711363289E-01  0.34558820218636899E+00
  0.42966989915306094E+02  0.20452635517020458E-01  0.14069033535702274E+00
  0.98114361822594809E+01  0.69024647882559492E-01  0.14108167433901000E-01
  0.10428764518200282E+02  0.47009082345283844E-01  0.95571879634388096E-02
  0.31464425371549655E+02  0.53454076726703976E-02  0.95535381885264218E-06
  0.36446992315473004E+02  0.13272693784192912E-03  0.45235505309652868E-01
  0.41167662821357062E+02  0.15354314799940361E-01  0.69165809488062460E-01
  0.41847978102515420E+02  0.44573230455912001E-02  0.25707283632174966E-01
  0.10380315310428090E+02  0.48672415570084115E-01  0.98685746753680251E-02
  0.11902608427770474E+02  0.28889079460938889E-01  0.54949860166789467E-02
  0.24594783281068072E+02  0.13784521983671635E-01  0.18734131067983998E-02
  0.38056561566432372E+02  0.43839241889954538E-02  0.34906814299089713E-01
  0.40919218805041908E+02  0.11171862266475713E+00  0.44912341270935296E+00
  0.42885458449877142E+02  0.20002016140856369E-01  0.13154973313446300E+00
  0.10721626627788396E+02  0.44255610425184284E-01  0.83791661371618760E-02
  0.13169377190198501E+02  0.38246610732599932E-01  0.65770438459463358E-02
  0.26275723953563173E+02  0.39592724249490459E-01  0.23875364032101775E-02
  0.36640454244626149E+02  0.17368515984569858E-02  0.37479875951019988E-01