  0.00000000000000000E+00  0.00000000000000000E+00  0.00000000000000000E+00
  0.00000000000000000E+00  0.00000000000000000E+00  0.00000000000000000E+00
  0.00000000000000000E+00  0.00000000000000000E+00  0.00000000000000000E+00
  0.41099732667620380E+02  0.62908001911058553E-01  0.18656300154691105E+00
  0.41099732667620387E+02  0.62527369528871751E-01  0.18539823722810611E+00
  0.41099732667620394E+02  0.62776948256699105E-01  0.18616196730078347E+00
  0.27932333692488420E+01  0.97088560502904097E-03  0.39700276668548997E-03
  0.27932333692489140E+01  0.92962766748801249E-03  0.37991881053205183E-03
  0.66714437995523515E+01  0.83543716675433585E-02  0.31290934778184475E-02
  0.41071737831994227E+02  0.76774333207282816E-01  0.23537558036052234E+00
  0.41071737831994234E+02  0.81451193595348220E-01  0.24775630464670598E+00
  0.44116284831840396E+02  0.87095533868272804E-02  0.21353052334512727E-01
  0.51030361498593670E+01  0.35061895954069020E-02  0.13100188687114012E-02
  0.51030361498595251E+01  0.34206034206723003E-02  0.12782814302835746E-02
  0.12953500857821362E+02  0.30932396356829050E-01  0.78310739512152932E-02
  0.40961406016648020E+02  0.13123661835323872E+00  0.42626988636868546E+00
  0.40961406016648034E+02  0.13207196004036634E+00  0.42899723133907447E+00
  0.44014228665768997E+02  0.34628735479953435E-02  0.93271709278451003E-02
  0.65923130783661312E+01  0.82764546625193423E-02  0.28155508402519648E-02
  0.65923130783662200E+01  0.81688894051132367E-02  0.27840587203237207E-02
  0.18686707758693817E+02  0.33581763258949105E-02  0.96477829048775550E-03
  0.40826914471099499E+02  0.11081286912157155E+00  0.35885392343758926E+00
  0.40826914471099499E+02  0.11326315137275716E+00  0.36709999470960358E+00
  0.43258276310096470E+02  0.20281391996231891E-01  0.90543582589506760E-01
  0.72949177796101070E+01  0.18008906258398356E-01  0.57847268513124125E-02
  0.72949177796102154E+01  0.16652938675131075E-01  0.53525712704688370E-02
  0.23665628167605572E+02  0.10542829382880247E-01  0.17841272736155421E-02
  0.40847867253061168E+02  0.99354773310479566E-01  0.33373406397248878E+00
  0.40847867253061189E+02  0.96404626856179482E-01  0.32302622805389009E+00
  0.41688381923538486E+02  0.44163226913088698E-02  0.24012900723665447E-01
  0.75650810924243981E+01  0.30639297372130780E-01  0.97184445225452672E-02
  0.75650810924244434E+01  0.28300977880392382E-01  0.89772283712798509E-02
  0.27323415841027092E+02  0.31750673382980640E-01  0.17506910973303035E-02
  0.39873250341360716E+02  0.24984561106283121E-02  0.19570435180283435E-01
  0.41034414033619996E+02  0.78027779030678715E-01  0.28011302026591645E+00
  0.41034414033620010E+02  0.82313754658298266E-01  0.29418371739964566E+00
  0.76469346245982113E+01  0.46344706576498224E-01  0.14777427107452787E-01
  0.76469346245982441E+01  0.47178564543542807E-01  0.15048758525518468E-01
  0.28754351784299786E+02  0.35621481712483145E-01  0.12453599117785480E-02
  0.38996639081948516E+02  0.29842787423899819E-02  0.47116182238978475E-01
  0.41147667311100655E+02  0.25672065062112167E-01  0.88354041349013160E-01
  0.41147667311100662E+02  0.26192447392483290E-01  0.90304087137451111E-01
  0.75650810924244229E+01  0.29179719413420919E-01  0.92557777394777184E-02
  0.75650810924244549E+01  0.29760555839103003E-01  0.94398951543476148E-02
  0.27323415841027082E+02  0.31750673382980821E-01  0.17506910973303174E-02
  0.39873250341360709E+02  0.24984561106283225E-02  0.19570435180283532E-01
  0.41034414033620003E+02  0.80998261206738795E-01  0.28986500176836077E+00
  0.41034414033620024E+02  0.79343272482230609E-01  0.28443173589717408E+00
  0.72949177796101239E+01  0.17981737249588979E-01  0.57760679136446931E-02
  0.72949177796101923E+01  0.16680107683940310E-01  0.53612302081365200E-02
  0.23665628167605572E+02  0.10542829382880235E-01  0.17841272736155388E-02
  0.40847867253061182E+02  0.96954404230129576E-01  0.32502169709354578E+00
  0.40847867253061189E+02  0.98804995936520409E-01  0.33173859493280322E+00
  0.41688381923538500E+02  0.44163226913089080E-02  0.24012900723665739E-01
  0.65923130783661250E+01  0.82825141269062680E-02  0.28173248831332462E-02
  0.65923130783661561E+01  0.81628299407259398E-02  0.27822846774423148E-02
  0.18686707758693810E+02  0.33581763258949027E-02  0.96477829048775506E-03
  0.40826914471099506E+02  0.11369756036586456E+00  0.36856193547852484E+00
  0.40826914471099514E+02  0.11037846012845468E+00  0.35739198266863920E+00
  0.43258276310096477E+02  0.20281391996231083E-01  0.90543582589503110E-01
  0.51030361498594621E+01  0.34974069392959884E-02  0.13067620458843828E-02
  0.51030361498595154E+01  0.34293860767834645E-02  0.12815382531106876E-02
  0.12953500857821368E+02  0.30932396356829102E-01  0.78310739512153140E-02
  0.40961406016648034E+02  0.13251692570937165E+00  0.43045001993811177E+00
  0.40961406016648041E+02  0.13079165268422080E+00  0.42481709776960547E+00
  0.44014228665768997E+02  0.34628735479953435E-02  0.93271709278450968E-02
  0.27932333692488309E+01  0.97736172477732686E-03  0.39968437784732003E-03
  0.27932333692488758E+01  0.92315154773970145E-03  0.37723719937021158E-03
  0.66714437995523515E+01  0.83543716675433567E-02  0.31290934778184479E-02
  0.41071737831994227E+02  0.78308097757727124E-01  0.23943580761627384E+00
  0.41071737831994234E+02  0.79917429044903912E-01  0.24369607739095475E+00
  0.44116284831840396E+02  0.87095533868272908E-02  0.21353052334512741E-01
  0.40345302208223908E+01  0.14777681387042195E-02  0.58368724024180491E-03
  0.40345302208225293E+01  0.14597570187174353E-02  0.57619111237849820E-03
  0.66662003763579367E+01  0.82704910676214324E-02  0.31334752772675398E-02
  0.41097004918639549E+02  0.64761830060780373E-01  0.19905696728389552E+00
  0.41097004918639563E+02  0.63478865783740526E-01  0.19498857147644821E+00
  0.44075059318069776E+02  0.11664125964565617E-01  0.28129091349413233E-01
  0.57383487188169751E+01  0.49922164116268583E-02  0.18308682426750027E-02
  0.58645139289493171E+01  0.50822724381633863E-02  0.18321229243941613E-02
  0.11532845588551936E+02  0.30118684289724574E-01  0.81806207022582442E-02
  0.40968211760613698E+02  0.12494503648551666E+00  0.41504088106663867E+00
  0.41053027192444105E+02  0.76953311540630065E-01  0.25242125138902588E+00
  0.43988808941671437E+02  0.42037017720468386E-02  0.11102838425573126E-01
  0.71388055508678736E+01  0.13136343346290290E-01  0.42357938776472785E-02
  0.73459299754775236E+01  0.17529852860226503E-01  0.57361652810306897E-02
  0.16917195586847946E+02  0.22432025337414383E-02  0.71093040976973965E-03
  0.40770364321473387E+02  0.90086246373583923E-01  0.30465073445987018E+00
  0.40951455133081112E+02  0.13210810085026170E+00  0.44472943368142559E+00
  0.43442029417307054E+02  0.89799052776690560E-02  0.35322042589309592E-01
  0.77458657867160303E+01  0.23229123985231737E-01  0.70406175945776119E-02
  0.84300504455011485E+01  0.34538227985203326E-01  0.10186141476580937E-01
  0.21823680072524116E+02  0.65092539894715234E-02  0.14047185189115835E-02
  0.40580826378889498E+02  0.29103306220220167E-01  0.10312389201450328E+00
  0.40764226620950275E+02  0.83480729618640073E-01  0.29200608080598595E+00
  0.42429706552017656E+02  0.13489665482009965E-01  0.74932328351998020E-01
  0.80015552904716056E+01  0.30009653748492408E-01  0.90354216415538934E-02
  0.89777981837807541E+01  0.55410978043649764E-01  0.15265514543939644E-01
  0.25734401833369432E+02  0.23826165764325072E-01  0.23305938776886932E-02
  0.39591644895490191E+02  0.41991437231532550E-02  0.22757903354660120E-01
  0.40968863355774559E+02  0.11768976610741744E+00  0.42707972958873586E+00
  0.41757930754083368E+02  0.47268494757630019E-02  0.24740816293361865E-01
  0.81286731509100161E+01  0.31521774161780931E-01  0.95303252307998559E-02
  0.91845855581732767E+01  0.64431612801470653E-01  0.17093931005834777E-01
  0.27850840915070687E+02  0.27010860231846224E-01  0.10223632903116895E-02
  0.38591964187781066E+02  0.27680277827364691E-02  0.29815632232570340E-01
  0.41096462586506114E+02  0.58888936251238685E-01  0.20596433206831241E+00
  0.41712553209879054E+02  0.49139242499907478E-02  0.23785677702581928E-01
  0.80828645503217604E+01  0.31048895505434774E-01  0.94371401838413260E-02
  0.91288623725791354E+01  0.61349130841598258E-01  0.16294910416709926E-01
  0.27412959913614252E+02  0.31261287747320440E-01  0.14730771831719784E-02
  0.38780179517633869E+02  0.28740112152926970E-02  0.26017984146733977E-01
  0.40993784312625550E+02  0.10281017639245189E+00  0.36966320273184572E+00
  0.41805265304773449E+02  0.50429969189739110E-02  0.24594780555125321E-01
  0.78152697304724450E+01  0.25149482457559127E-01  0.77882445089832199E-02
  0.89373971561311887E+01  0.55227525231362415E-01  0.14964959066369752E-01
  0.24582522516901388E+02  0.13700353613440937E-01  0.18799763915468145E-02
  0.39823133926769607E+02  0.36151760814752752E-02  0.18208085259528044E-01
  0.40828625941431746E+02  0.10731983654377153E+00  0.36160142783467569E+00
  0.42074319278607653E+02  0.53748138917255406E-02  0.29374340553238353E-01
  0.71635225454342857E+01  0.13652957265703912E-01  0.44969672542917102E-02
  0.86181645482939739E+01  0.41302221325812960E-01  0.11643035172252193E-01
  0.20216489705030195E+02  0.44267357082344132E-02  0.11112541595803235E-02
  0.40567399992575368E+02  0.28571108979647600E-01  0.10096318848236686E+00
  0.40801208708672391E+02  0.11264126885339235E+00  0.36842649735481392E+00
  0.42866400879258904E+02  0.23472719475176575E-01  0.12163207936250420E+00
  0.58234541453867719E+01  0.49976525481610920E-02  0.18192091817482441E-02
  0.77558421165008919E+01  0.23205214735840227E-01  0.72666661413164123E-02
  0.15133807881510393E+02  0.17019257615813802E-02  0.58330674176513251E-03
  0.40892868308449302E+02  0.93407747327913876E-01  0.29918413846685793E+00
  0.41018114452142548E+02  0.91237010067065430E-01  0.31146973404732264E+00
  0.43595665397009284E+02  0.69626445259076460E-02  0.21821180745629911E-01
  0.39171564026263774E+01  0.13920025715200876E-02  0.55029610526367585E-03
  0.58600974605799800E+01  0.51188163902372115E-02  0.18766969342725228E-02
  0.10065725615994685E+02  0.54227480633350207E-01  0.15866163636799459E-01
  0.40991040517849399E+02  0.11312420979443105E+00  0.35846707771873598E+00
  0.41486010734530538E+02  0.43113528961291831E-02  0.15426965978101788E-01
  0.43679665052898009E+02  0.68277438094700403E-02  0.19076105696698459E-01
  0.71495876723873302E+01  0.13526303265387380E-01  0.43587462476185456E-02
  0.71495876723874003E+01  0.13408445506807917E-01  0.43236052472102708E-02
  0.13159291974692749E+02  0.33230069280064410E-01  0.85392860184589654E-02
  0.40823691972834560E+02  0.11012735401781676E+00  0.36782938412174537E+00
  0.40823691972834574E+02  0.11316913129112925E+00  0.37829877593567890E+00
  0.44091599202117749E+02  0.77031759722204756E-02  0.19433846335153340E-01
  0.80667468329085956E+01  0.31416434541766368E-01  0.90815529551102215E-02
  0.85368434922496679E+01  0.38138005462070176E-01  0.10664688530698159E-01
  0.16858633006524773E+02  0.21743736729755909E-02  0.72236290247484002E-03
  0.40622439010980692E+02  0.30919540685553495E-01  0.11493449244953619E+00
  0.40741887218842415E+02  0.64690286889216755E-01  0.22884506461626744E+00
  0.43661799419251118E+02  0.66996996348381898E-02  0.20332919920083608E-01
  0.85094513593976711E+01  0.38325275374911892E-01  0.10371635380442780E-01
  0.10101295438320106E+02  0.57991162653874523E-01  0.13289419772431222E-01
  0.20666988514262481E+02  0.48953017854160346E-02  0.12330335837158247E-02
  0.40432864700888686E+02  0.11207788180133290E-01  0.40696310420730977E-01
  0.40634636787983652E+02  0.32035912860322383E-01  0.12282339586305510E+00
  0.42816634371244007E+02  0.23423182759237493E-01  0.12364136887246799E+00
  0.87601490990607083E+01  0.47872847705943473E-01  0.12821522875541688E-01
  0.11290082812255370E+02  0.39686808430352695E-01  0.80729450353833956E-02
  0.24002384120469365E+02  0.11847563305147850E-01  0.18192197851857788E-02
  0.39221783249771818E+02  0.43692339450000280E-02  0.22558935130300686E-01
  0.40864316122321291E+02  0.83687661368936767E-01  0.31183080987968298E+00
  0.42458340101408957E+02  0.13202642223360062E-01  0.79623794382761626E-01
  0.89510375752227791E+01  0.54633402993882293E-01  0.14572697139527892E-01
  0.11877656373794949E+02  0.28042835884995249E-01  0.56982950633048795E-02
  0.26254023168264396E+02  0.37074428455557355E-01  0.26354190685341722E-02
  0.37984224276888931E+02  0.36851307239328659E-02  0.36896974223983976E-01
  0.40989689096904947E+02  0.10099712302640079E+00  0.38717426327114995E+00
  0.42495400547996525E+02  0.13548954416362993E-01  0.81277429992491254E-01
  0.89588177082989429E+01  0.54620168840480182E-01  0.14642324621989436E-01
  0.11874540250023514E+02  0.28194324586758995E-01  0.56688875319818432E-02
  0.26623716343427731E+02  0.40988677378201215E-01  0.23141630936719718E-02
  0.37660069693518651E+02  0.28683547195424370E-02  0.36480374990062348E-01
  0.40862574847297417E+02  0.85324941082106531E-01  0.31155191416888528E+00
  0.42677464099433671E+02  0.17815768548495932E-01  0.10577878810411473E+00
  0.87475114467406527E+01  0.46753363928659177E-01  0.12969828359874345E-01
  0.11550219498373044E+02  0.33222143602914193E-01  0.65296981256567077E-02
  0.24841212061408214E+02  0.15301415408721031E-01  0.17263852305584530E-02
  0.38277872074658958E+02  0.37752046558782262E-02  0.32800747431087185E-01
  0.40692139703145315E+02  0.46397402498959635E-01  0.16915192375534763E+00
  0.42918007295419841E+02  0.21584371847967222E-01  0.12928516937408008E+00
  0.82607089249344607E+01  0.32469026502768984E-01  0.96986421444256107E-02
  0.11234305370043948E+02  0.41640398344001336E-01  0.81762821384289610E-02
  0.21528210223872069E+02  0.62426722890864149E-02  0.13111912318937941E-02
  0.39352474587463178E+02  0.44727438270325869E-02  0.23144272570977821E-01
  0.40683949501204317E+02  0.45182743625863303E-01  0.15863503507352911E+00
  0.43126453186322522E+02  0.28621988146891628E-01  0.16429559809087449E+00
  0.72386937015771995E+01  0.15713198468179070E-01  0.51847142775812375E-02
  0.10276265232135021E+02  0.51038379117668203E-01  0.11599445649350183E-01
  0.17930435894850181E+02  0.28607588959988217E-02  0.84779553964398015E-03
  0.40479133095548136E+02  0.16185059402026841E-01  0.59313841133929256E-01
  0.40792780846200728E+02  0.10905723570945822E+00  0.35558879713774755E+00
  0.43252561579358741E+02  0.19754468222995862E-01  0.96317088163064835E-01
  0.58234541453867976E+01  0.49976525481611415E-02  0.18192091817482619E-02
  0.77417326184510138E+01  0.22763017738688784E-01  0.71326048298459878E-02
  0.15140066186638142E+02  0.17027445508953634E-02  0.58359386162312710E-03
  0.40892868308449302E+02  0.93407747327913945E-01  0.29918413846685754E+00
  0.41002145426011708E+02  0.10330865732669778E+00  0.35087076656709709E+00
  0.43611019535668156E+02  0.69971589301437501E-02  0.21821281471200063E-01
  0.86739581480188974E+01  0.44896247778015978E-01  0.11573053191685116E-01
  0.86739581480189116E+01  0.44928271591509313E-01  0.11571449975633967E-01
  0.19371093498807173E+02  0.36266665245692350E-02  0.10913914524355531E-02
  0.40479528400683336E+02  0.15524332504960124E-01  0.62513532695093937E-01
  0.40479528400683350E+02  0.15178608140680521E-01  0.61230481567600060E-01
  0.43547714982112289E+02  0.66666649843400020E-02  0.21175385084067709E-01
  0.89519158737217168E+01  0.56363578889926678E-01  0.13692839182457329E-01
  0.96696085114774224E+01  0.64187660066686900E-01  0.14024564701610339E-01
  0.22275807924549731E+02  0.67877042544663650E-02  0.16111702436792141E-02
  0.40386759041771377E+02  0.87937889967786443E-02  0.35484000543047664E-01
  0.40548627593721235E+02  0.23355799925591159E-01  0.97665727484227402E-01
  0.42713901952167838E+02  0.22176979137476713E-01  0.11037447761942848E+00
  0.91723154548743331E+01  0.66144432822473273E-01  0.15650896883638108E-01
  0.11418479930641086E+02  0.37153642372152233E-01  0.68211610731238759E-02
  0.24646058364221915E+02  0.13323723928515092E-01  0.21103883967736178E-02
  0.39232647297437204E+02  0.44058252411288343E-02  0.22570562358539353E-01
  0.40803091415972851E+02  0.99956089246812513E-01  0.39510033337754158E+00
  0.42440677353851733E+02  0.12799214233457855E-01  0.78604068505315969E-01
  0.93838616909334309E+01  0.10277220274023301E+00  0.23976790273125877E-01
  0.12936066313006625E+02  0.35332070406010531E-01  0.58402288134588760E-02
  0.26336100670991254E+02  0.39131119624593279E-01  0.29933327426640960E-02
  0.37555987927792273E+02  0.29696171433780867E-02  0.33811817060970452E-01
  0.40924690898594768E+02  0.11925666748031667E+00  0.48819896877962216E+00
  0.42742833306183250E+02  0.19926179651918178E-01  0.12682698709087623E+00
  0.94253065159997860E+01  0.12003872215490734E+00  0.27957109358199141E-01
  0.13500659758366133E+02  0.34530358245240166E-01  0.53971489408651185E-02
  0.26912760157959422E+02  0.38835536816271221E-01  0.16569137184636650E-02
  0.36701182082042919E+02  0.15659460624359847E-02  0.39198543769573567E-01
  0.40766877390212514E+02  0.79197897016769020E-01  0.31099012515334690E+00
  0.43067985368789074E+02  0.24901079102646891E-01  0.16399705846726037E+00
  0.92892331587678818E+01  0.95682312252859905E-01  0.22832798650883172E-01
  0.13206259682696070E+02  0.39152750913606350E-01  0.61252504202228318E-02
  0.25807290118062848E+02  0.26937436075468318E-01  0.18513553005894531E-02
  0.37007291761083920E+02  0.21483940515542644E-02  0.39261445546623232E-01
  0.40559681551694467E+02  0.24952646240905943E-01  0.99958561974379023E-01
  0.43341564406967258E+02  0.10559664243268515E-01  0.63973040052484623E-01
  0.89882124408746140E+01  0.55233977440220711E-01  0.14623625778527272E-01
  0.12615309022321988E+02  0.30832315515795655E-01  0.52245897952544716E-02
  0.23522195763445904E+02  0.10580146985101799E-01  0.15236617790768288E-02
  0.37983983981784220E+02  0.39024934953463312E-02  0.36021948406542888E-01
  0.40545165537460626E+02  0.24439430061462424E-01  0.93406070896540863E-01
  0.43433217493383118E+02  0.76903650565631433E-02  0.40955119555066054E-01
  0.82607089249346100E+01  0.32469026502770296E-01  0.96986421444257998E-02
  0.11230851921058402E+02  0.41700678962332885E-01  0.81895657432409317E-02
  0.21514983029531635E+02  0.62259425500766066E-02  0.13092384875515678E-02
  0.39357628171999679E+02  0.44744143363474329E-02  0.23162306841729149E-01
  0.40683949501204289E+02  0.45182743625854997E-01  0.15863503507350188E+00
  0.43129250494536471E+02  0.28552404916945259E-01  0.16367947852322010E+00
  0.71635225454343257E+01  0.13652957265705010E-01  0.44969672542920407E-02
  0.85143760843113157E+01  0.37420652938536192E-01  0.10612386130659813E-01
  0.20282883272755054E+02  0.44931191899938898E-02  0.11259177742494084E-02
  0.40391985634956143E+02  0.97018080996515103E-02  0.35315628561076839E-01
  0.40801208708672405E+02  0.11264126885339648E+00  0.36842649735482946E+00
  0.43021146255977413E+02  0.26769235849654609E-01  0.13982694487585390E+00
  0.91112792443191228E+01  0.64369140624030777E-01  0.14618220515058357E-01
  0.91112792443191317E+01  0.64244236160633086E-01  0.14623032757675465E-01
  0.25047447495664098E+02  0.14605106399117641E-01  0.23918684906291368E-02
  0.40635923831498907E+02  0.30806544241485150E-01  0.13157271186631780E+00
  0.40635923831498928E+02  0.30224803732112410E-01  0.12939816559783601E+00
  0.41759763749990363E+02  0.51570434116844331E-02  0.24506010623633594E-01
  0.92504738385741909E+01  0.12048627356541829E+00  0.26280863836276654E-01
  0.99689952308690319E+01  0.65175808679313690E-01  0.13306930628653815E-01
  0.27288095198152345E+02  0.29707353968207895E-01  0.22976017690452140E-02
  0.39520489630120693E+02  0.43647740047855158E-02  0.23422269620928044E-01
  0.40864991281456703E+02  0.77240323394488844E-01  0.32314790834873586E+00
  0.41633960356189625E+02  0.41077468037394481E-02  0.23007596926764927E-01
  0.94178534669663314E+01  0.12104850552992706E+00  0.26798998234020793E-01
  0.11777062256669002E+02  0.32599147893883122E-01  0.56615396590776199E-02
  0.28582676344608569E+02  0.15697179748156400E-01  0.53392196563748189E-03
  0.37419341957019995E+02  0.24195772807553756E-02  0.34086200533008357E-01
  0.40976427255853189E+02  0.10066771318840562E+00  0.43312764324529496E+00
  0.42319007113861012E+02  0.94256694719536561E-02  0.59526758165549733E-01
  0.94865825839612263E+01  0.15237476287546833E+00  0.33417434376233547E-01
  0.13332488982502204E+02  0.38420553391256183E-01  0.57762828026705687E-02
  0.28787180850771520E+02  0.15958400195047958E-01  0.19679382009506091E-03
  0.35991326778253097E+02  0.51952726398922782E-03  0.43913541892938918E-01
  0.40827129384282536E+02  0.95297873982217687E-01  0.38788913741099434E+00
  0.42904650702951180E+02  0.19625908047784458E-01  0.13258381532892449E+00
  0.94446935258001883E+01  0.11511436006204435E+00  0.25932288394442057E-01
  0.13773064508895963E+02  0.48904682947994438E-01  0.69067658271090571E-02
  0.27610897323036699E+02  0.32182117300680553E-01  0.69639679955845726E-03
  0.36034688544035774E+02  0.64044932472113645E-03  0.44450874630446391E-01
  0.40606312759090692E+02  0.26920195147176154E-01  0.11270811815043517E+00
  0.43276676627345495E+02  0.14186949125690200E-01  0.91385981552097525E-01
  0.92892331587678125E+01  0.95682312252873949E-01  0.22832798650886336E-01
  0.13228751539440850E+02  0.39176920397898517E-01  0.61166503565134494E-02
  0.25782031503015521E+02  0.26481162180426156E-01  0.18357517757972184E-02
  0.37006499807694730E+02  0.21478059307809255E-02  0.39265337750154353E-01
  0.40559681551694453E+02  0.24952646240904985E-01  0.99958561974375346E-01
  0.43350413181955886E+02  0.10233220778080270E-01  0.61468928647249121E-01
  0.87475114467406332E+01  0.46753363928658309E-01  0.12969828359874098E-01
  0.11595418273257945E+02  0.32088743940700812E-01  0.63189357239727961E-02
  0.24781878499969196E+02  0.15025692066079543E-01  0.17155139282674166E-02
  0.38272598747434479E+02  0.37635309178633107E-02  0.32923317028411843E-01
  0.40692139703145301E+02  0.46397402498955485E-01  0.16915192375533269E+00
  0.42944815590626895E+02  0.22152977371243693E-01  0.13184918533247025E+00
  0.78152697304726031E+01  0.25149482457563904E-01  0.77882445089846606E-02
  0.89007861059323332E+01  0.54376620968566186E-01  0.14786793481829884E-01
  0.24605577248301042E+02  0.13777253832660648E-01  0.18853206435992097E-02
  0.39822423085705793E+02  0.36356608211725043E-02  0.18181079647886025E-01
  0.40828625941431788E+02  0.10731983654375098E+00  0.36160142783460941E+00
  0.42069276369880868E+02  0.53044417414633109E-02  0.29184160885189367E-01
  0.92545724149971580E+01  0.12901182843006201E+00  0.27860124868368752E-01
  0.92545724149971882E+01  0.12868066727299204E+00  0.27797219753414700E-01
  0.29800860791952722E+02  0.85358606330365808E-02  0.27358132636115691E-03
  0.39089031573017948E+02  0.29260883901277273E-02  0.24561128120048573E-01
  0.41030158276965302E+02  0.70513501362837488E-01  0.31397745976611530E+00
  0.41030158276965309E+02  0.72106592969328864E-01  0.32038358331180705E+00
  0.93186550581752456E+01  0.10200808400925958E+00  0.22432284595931412E-01
  0.10051626835705630E+02  0.62034854359529018E-01  0.12638603465560130E-01
  0.31153725138393071E+02  0.57149942819535232E-02  0.44668327449323597E-04
  0.37349095762923355E+02  0.12832156639354924E-02  0.38517873351064318E-01
  0.41118573462710415E+02  0.30871135826086294E-01  0.13306149887541038E+00
  0.41571349417464972E+02  0.38249183714304637E-02  0.20698668710197848E-01
  0.94158695816282947E+01  0.12094087497161740E+00  0.26480849670680564E-01
  0.11845624043685728E+02  0.29171064439779532E-01  0.51268722306654010E-02
  0.30734672772211390E+02  0.69489291643472688E-02  0.45832502086918595E-05
  0.36054112484771515E+02  0.10765861278275336E-03  0.49088776086710043E-01
  0.41009338807522624E+02  0.80832860860159589E-01  0.35460389050401886E+00
  0.42322132021028736E+02  0.94768978251235127E-02  0.60141078987638791E-01
  0.94865825839612334E+01  0.15237476287546356E+00  0.33417434376232430E-01
  0.13336830397999705E+02  0.38349424352523115E-01  0.57642123349011922E-02
  0.28797005926561301E+02  0.15777201324801961E-01  0.19117884243713892E-03
  0.35987496850211976E+02  0.51339442236870893E-03  0.43802212675158457E-01
  0.40827129384282536E+02  0.95297873982217562E-01  0.38788913741099451E+00
  0.42899920443532089E+02  0.19580207342151469E-01  0.13234903833368444E+00
  0.94253065159998020E+01  0.12003872215490763E+00  0.27957109358199152E-01
  0.13488550295190135E+02  0.34730732901086907E-01  0.54327903905891303E-02
  0.26948382290158495E+02  0.38810164039955589E-01  0.16169253428675793E-02
  0.36693810242995824E+02  0.15491758010722713E-02  0.39184051430537742E-01
  0.40766877390212535E+02  0.79197897016784535E-01  0.31099012515340474E+00
  0.43055784697356550E+02  0.24220885608736104E-01  0.15965443504037943E+00
  0.89588177082989571E+01  0.54620168840480453E-01  0.14642324621989469E-01
  0.11873680815936810E+02  0.28196843328822933E-01  0.56698578248016111E-02
  0.26612589587957615E+02  0.41198476993846503E-01  0.23378384396805733E-02
  0.37661735184278051E+02  0.28731632234284712E-02  0.36500313561171713E-01
  0.40862574847297445E+02  0.85324941082097275E-01  0.31155191416885403E+00
  0.42683172932402307E+02  0.18130381858760938E-01  0.10759795661282127E+00
  0.80828645503218048E+01  0.31048895505435228E-01  0.94371401838414387E-02
  0.91677664943643844E+01  0.62675423518558551E-01  0.16570797602781216E-01
  0.27356277655262790E+02  0.32090241534369401E-01  0.15425601959557496E-02
  0.38765445638413802E+02  0.28712963848695422E-02  0.26264594639632426E-01
  0.40993784312625550E+02  0.10281017639245167E+00  0.36966320273184539E+00
  0.41847525433094376E+02  0.50584590523035508E-02  0.24608562636298247E-01
  0.92649847966119783E+01  0.13259478493032620E+00  0.28811986740728653E-01
  0.92649847966120014E+01  0.13303291923098953E+00  0.28895364157413162E-01
  0.32349498402940625E+02  0.23574893553351177E-01  0.43851167943267643E-34
  0.37205764589577257E+02  0.16034357901242095E-33  0.68460708769183656E-01
  0.41199366162526182E+02  0.11774885625928096E-01  0.52887652219706892E-01
  0.41199366162526189E+02  0.11887840100391156E-01  0.53433831545860316E-01
  0.93186550581752350E+01  0.10200808400925918E+00  0.22432284595931332E-01
  0.10052260129101096E+02  0.62008801526769734E-01  0.12632811868878000E-01
  0.31153492024661777E+02  0.57153859045180160E-02  0.44679396757719822E-04
  0.37349085654041403E+02  0.12831472200332404E-02  0.38518289918524067E-01
  0.41118573462710437E+02  0.30871135826068260E-01  0.13306149887533655E+00
  0.41571380065053255E+02  0.38252444824139137E-02  0.20699446403775485E-01
  0.94178534669663154E+01  0.12104850552992338E+00  0.26798998234019995E-01
  0.11778603594766313E+02  0.31768136978306279E-01  0.55418865321952820E-02
  0.28581542156734972E+02  0.15708650736089728E-01  0.53474741733817316E-03
  0.37420632057644767E+02  0.24219885863091405E-02  0.34080793883110687E-01
  0.40976427255853174E+02  0.10066771318841390E+00  0.43312764324533043E+00
  0.42318203408510023E+02  0.94037235751068399E-02  0.59385309541483543E-01
  0.93838616909334558E+01  0.10277220274024496E+00  0.23976790273128625E-01
  0.12917537505491113E+02  0.35025507805734532E-01  0.58026370116883771E-02
  0.26359480862204556E+02  0.39771819989483530E-01  0.30135968857815322E-02
  0.37549764912959169E+02  0.29504748673321421E-02  0.33753721219760599E-01
  0.40924690898594761E+02  0.11925666748031016E+00  0.48819896877959229E+00
  0.42739492122983130E+02  0.19817023255701335E-01  0.12619320721293667E+00
  0.89510375752227382E+01  0.54633402993881780E-01  0.14572697139527859E-01
  0.11837597324957446E+02  0.28213639809818281E-01  0.57414379194174851E-02
  0.26282077565676744E+02  0.38086857557700658E-01  0.26747654019180721E-02
  0.37975720198965867E+02  0.36711435820593599E-02  0.36978592494459818E-01
  0.40989689096904947E+02  0.10099712302640101E+00  0.38717426327115034E+00
  0.42496837280898220E+02  0.13560455428874003E-01  0.81296767414207424E-01
  0.81286731509100889E+01  0.31521774161781591E-01  0.95303252307999773E-02
  0.92089530947207443E+01  0.69568264268015920E-01  0.18347152258498145E-01
  0.27789629011282670E+02  0.27564224946900476E-01  0.10743680080129144E-02
  0.38581586263111966E+02  0.27775730052581587E-02  0.30009263635527889E-01
  0.41096462586506135E+02  0.58888936251220950E-01  0.20596433206824832E+00
  0.41757581951623003E+02  0.50257415526951173E-02  0.24233906418320624E-01
  0.92504738385741838E+01  0.12048627356540437E+00  0.26280863836273829E-01
  0.99682505382305493E+01  0.65199947494867530E-01  0.13312448853546880E-01
  0.27287513173548913E+02  0.29714444473349835E-01  0.22987356407195318E-02
  0.39520693610310985E+02  0.43647795463899420E-02  0.23420082307714356E-01
  0.40864991281456717E+02  0.77240323394485250E-01  0.32314790834872220E+00
  0.41634326505566868E+02  0.41093210857217491E-02  0.23017853079993215E-01
  0.91723154548744485E+01  0.66144432822484930E-01  0.15650896883640606E-01
  0.11414261528967671E+02  0.37278225043855959E-01  0.68434007474108350E-02
  0.24644314201285368E+02  0.13317991025190379E-01  0.21099535893779283E-02
  0.39230792496431839E+02  0.43995216779126106E-02  0.22563819358907659E-01
  0.40803091415972865E+02  0.99956089246815968E-01  0.39510033337755396E+00
  0.42444539300556663E+02  0.12867793677332980E-01  0.78959728525704015E-01
  0.87601490990607545E+01  0.47872847705945736E-01  0.12821522875542198E-01
  0.11278987468933289E+02  0.39941199564009634E-01  0.81267961814987001E-02
  0.24012082560664407E+02  0.11880326084470883E-01  0.18204647220919552E-02
  0.39218268653660353E+02  0.43578225124654207E-02  0.22544023169292490E-01