  0.00000000000000000E+00  0.00000000000000000E+00  0.00000000000000000E+00
  0.00000000000000000E+00  0.00000000000000000E+00  0.00000000000000000E+00
  0.00000000000000000E+00  0.00000000000000000E+00  0.00000000000000000E+00
  0.41099732667620380E+02  0.48600297650475732E+00  0.93784125208006319E+00
  0.41099732667620387E+02  0.48600297650469115E+00  0.93784125207993796E+00
  0.41099732667620394E+02  0.48600297650462609E+00  0.93784125207980940E+00
  0.27932333692488420E+01  0.47523708119455938E-02  0.30313279448490253E-02
  0.27932333692489140E+01  0.47523708119457872E-02  0.30313279448491498E-02
  0.66714437995523515E+01  0.41028188846279401E-01  0.23902123617669462E-01
  0.41071737831994227E+02  0.65499144999314496E+00  0.12720175206983573E+01
  0.41071737831994234E+02  0.65499144999312964E+00  0.12720175206983237E+01
  0.44116284831840396E+02  0.79911334331170925E-01  0.12604487442695392E+00
  0.51030361498593670E+01  0.16768190118604878E-01  0.10227177690541203E-01
  0.51030361498595251E+01  0.16768190118607050E-01  0.10227177690542504E-01
  0.12953500857821362E+02  0.14897883446473520E+00  0.62103231495336371E-01
  0.40961406016648020E+02  0.10851170910451373E+01  0.21599104565704690E+01
  0.40961406016648034E+02  0.10851170910450907E+01  0.21599104565703691E+01
  0.44014228665768997E+02  0.51529225205079680E-01  0.83873826669007237E-01
  0.65923130783661312E+01  0.39090706205303152E-01  0.22844841991369422E-01
  0.65923130783662200E+01  0.39090706205305539E-01  0.22844841991370761E-01
  0.18686707758693817E+02  0.15664983748310959E-01  0.83979355050833523E-02
  0.40826914471099499E+02  0.91426250516237983E+00  0.17253793804442905E+01
  0.40826914471099499E+02  0.91426250516237983E+00  0.17253793804442905E+01
  0.43258276310096470E+02  0.18136624141882560E+00  0.43612553846620677E+00
  0.72949177796101070E+01  0.82160939813461523E-01  0.46608608970346702E-01
  0.72949177796102154E+01  0.82160939813466546E-01  0.46608608970349318E-01
  0.23665628167605572E+02  0.45331627174885286E-01  0.18119263817420142E-01
  0.40847867253061168E+02  0.81828932021846290E+00  0.15531212959364284E+01
  0.40847867253061189E+02  0.81828932021836576E+00  0.15531212959362588E+01
  0.41688381923538486E+02  0.43814326551784612E-01  0.10100705742901554E+00
  0.75650810924243981E+01  0.13953693011099946E+00  0.78327580193083557E-01
  0.75650810924244434E+01  0.13953693011100365E+00  0.78327580193085708E-01
  0.27323415841027092E+02  0.12122779670232603E+00  0.23483395745878141E-01
  0.39873250341360716E+02  0.34789595212545002E-01  0.77394362185865456E-01
  0.41034414033619996E+02  0.73140757323699779E+00  0.14672172895063713E+01
  0.41034414033620010E+02  0.73140757323696826E+00  0.14672172895063154E+01
  0.76469346245982113E+01  0.23622566647186410E+00  0.13294239783046916E+00
  0.76469346245982441E+01  0.23622566647185775E+00  0.13294239783046555E+00
  0.28754351784299786E+02  0.13984234008641078E+00  0.24554350535800663E-01
  0.38996639081948516E+02  0.55606364320690292E-01  0.18233259957999212E+00
  0.41147667311100655E+02  0.22481661688109977E+00  0.43918377396887714E+00
  0.41147667311100662E+02  0.22481661688109628E+00  0.43918377396887265E+00
  0.40345302208223908E+01  0.71369578820418885E-02  0.44724113955075563E-02
  0.40345302208225293E+01  0.71369578820422502E-02  0.44724113955077697E-02
  0.66662003763579367E+01  0.40911797687946339E-01  0.23839168068984746E-01
  0.41097004918639549E+02  0.50955662062855223E+00  0.98382196518168596E+00
  0.41097004918639563E+02  0.50955662062843754E+00  0.98382196518146070E+00
  0.44075059318069776E+02  0.10478653692257851E+00  0.16474721861210354E+00
  0.57383487188169751E+01  0.23812214453459362E-01  0.14369257459259885E-01
  0.58645139289493171E+01  0.24769536990160160E-01  0.14906035865568504E-01
  0.11532845588551936E+02  0.14625591025059737E+00  0.63651078002770645E-01
  0.40968211760613698E+02  0.10530109057174954E+01  0.20936296113084145E+01
  0.41053027192444105E+02  0.66140795795844920E+00  0.13048917212991880E+01
  0.43988808941671437E+02  0.55596546768629941E-01  0.90581578462456222E-01
  0.71388055508678736E+01  0.61753829124080152E-01  0.35282447661054296E-01
  0.73459299754775236E+01  0.81896380948880826E-01  0.46356732341957613E-01
  0.16917195586847946E+02  0.10448796394614214E-01  0.58979477947744396E-02
  0.40770364321473387E+02  0.71941368659899063E+00  0.13716518108173370E+01
  0.40951455133081112E+02  0.10939520692995059E+01  0.21762636612298305E+01
  0.43442029417307054E+02  0.55822657559020931E-01  0.11515816411619231E+00
  0.77458657867160303E+01  0.10734035797471089E+00  0.59479840564598568E-01
  0.84300504455011485E+01  0.16204358440680686E+00  0.86526322711035983E-01
  0.21823680072524116E+02  0.28690190379826504E-01  0.13360461288362060E-01
  0.40580826378889498E+02  0.24137901613612137E+00  0.47840085207157290E+00
  0.40764226620950275E+02  0.67485619072484748E+00  0.12897797340980064E+01
  0.42429706552017656E+02  0.13672076265817090E+00  0.33322577504416445E+00
  0.80015552904716056E+01  0.14075193470263228E+00  0.77307076245466733E-01
  0.89777981837807541E+01  0.25553188765571733E+00  0.13052943538313694E+00
  0.25734401833369432E+02  0.96533938881210660E-01  0.28185710487215455E-01
  0.39591644895490191E+02  0.44254158054355661E-01  0.99408093171664755E-01
  0.40968863355774559E+02  0.10492363811258731E+01  0.20858331613955507E+01
  0.41757930754083368E+02  0.45792271698336488E-01  0.10568247341098795E+00
  0.81286731509100161E+01  0.14852973617337800E+00  0.81132366820289084E-01
  0.91845855581732767E+01  0.29956951766596507E+00  0.14794873403980610E+00
  0.27850840915070687E+02  0.99190528802815509E-01  0.16604431554539480E-01
  0.38591964187781066E+02  0.39335875068440586E-01  0.11377109268014446E+00
  0.41096462586506114E+02  0.51385103521617437E+00  0.99233941565181416E+00
  0.41712553209879054E+02  0.44700071580552475E-01  0.10306849850878760E+00
  0.80828645503217693E+01  0.14656671119138800E+00  0.80237869014161092E-01
  0.91357238771396485E+01  0.28449339187766975E+00  0.14147797552540278E+00
  0.27409693830794939E+02  0.11683547322550651E+00  0.22112828685205019E-01
  0.38786206797447662E+02  0.36824933196596292E-01  0.10106496395839926E+00
  0.40993784312625571E+02  0.90677666027621528E+00  0.18002443217232722E+01
  0.41800316095380033E+02  0.46214357763669306E-01  0.10681541107594718E+00
  0.78152697304725383E+01  0.11772716860512407E+00  0.65073731138999655E-01
  0.89323904029126044E+01  0.25277327001222510E+00  0.12971334320208619E+00
  0.24585218507567692E+02  0.56681754223511988E-01  0.20761052360014291E-01
  0.39817571601799308E+02  0.36592367780744109E-01  0.81765495391310533E-01
  0.40828625941431767E+02  0.90770277655643572E+00  0.17135752634308077E+01
  0.42079071331110995E+02  0.53010475005767249E-01  0.12632529325208672E+00
  0.71635225454343177E+01  0.64852776331609324E-01  0.37007883969270600E-01
  0.85890322116206743E+01  0.18582056322125892E+00  0.98068227912147324E-01
  0.20234586576855715E+02  0.19808654933811315E-01  0.99979945839569710E-02
  0.40554204816081764E+02  0.22763629204810923E+00  0.45202840352710294E+00
  0.40801208708672391E+02  0.92982971153882510E+00  0.17534635712357500E+01
  0.42876193699310178E+02  0.21981071814505324E+00  0.54867410718296550E+00
  0.58234541453867843E+01  0.24472200108018264E-01  0.14741126066811647E-01
  0.77544445297457747E+01  0.10858505391643014E+00  0.60149475965237550E-01
  0.15134642875475169E+02  0.82211726287059993E-02  0.48215749781385809E-02
  0.40892868308449295E+02  0.76461514520089868E+00  0.14745160536244539E+01
  0.41020906649232749E+02  0.76184818686941158E+00  0.15199256474643159E+01
  0.43592996860613631E+02  0.42228762716708432E-01  0.75073228820389845E-01
  0.39171564026266044E+01  0.68460311267288581E-02  0.43004945881054907E-02
  0.59145973641921108E+01  0.25139226919786657E-01  0.15109261524559251E-01
  0.10026610956603905E+02  0.27736748329311361E+00  0.12870539983767595E+00
  0.40991040517849434E+02  0.92128077673550035E+00  0.18283907445379726E+01
  0.41181310274269833E+02  0.15129651181270695E+00  0.29217943715635469E+00
  0.43968694488938937E+02  0.54950363959052784E-01  0.89693060564750571E-01
  0.71495876723873302E+01  0.63051914131845993E-01  0.36004785706509709E-01
  0.71495876723874003E+01  0.63051914131854750E-01  0.36004785706514573E-01
  0.13159291974692749E+02  0.16510133989217179E+00  0.67602827220820144E-01
  0.40823691972834560E+02  0.92518087316245856E+00  0.17450466564100411E+01
  0.40823691972834574E+02  0.92518087316241715E+00  0.17450466564099658E+01
  0.44091599202117749E+02  0.67174256856964848E-01  0.10678396596016683E+00
  0.80667468329085956E+01  0.14566340748391116E+00  0.79799683127171575E-01
  0.85368434922496679E+01  0.17683483245112472E+00  0.93646257614390743E-01
  0.16858633006524773E+02  0.10334930774353244E-01  0.58436637495441202E-02
  0.40622439010980692E+02  0.27572015566689873E+00  0.54092517543877039E+00
  0.40741887218842415E+02  0.54735419153820508E+00  0.10523788414027464E+01
  0.43661799419251118E+02  0.39629834653608399E-01  0.69801461655972230E-01
  0.85094513593976711E+01  0.17252985007874794E+00  0.91543927082733192E-01
  0.10101295438320106E+02  0.26305666576448655E+00  0.12170222145671319E+00
  0.20666988514262481E+02  0.22199618135235050E-01  0.10948754529593881E-01
  0.40432864700888686E+02  0.91896903872782432E-01  0.18155242744617675E+00
  0.40634636787983652E+02  0.29239729257161368E+00  0.57141876691085158E+00
  0.42816634371244007E+02  0.22104088650654863E+00  0.54961272149092499E+00
  0.87601490990607083E+01  0.21955615315905230E+00  0.11456409112630983E+00
  0.11290082812255370E+02  0.17605463470474453E+00  0.75889328304605666E-01
  0.24002384120469365E+02  0.49941505473150669E-01  0.19379238425255310E-01
  0.39221783249771818E+02  0.43266132341958849E-01  0.10062698632844568E+00
  0.40864316122321291E+02  0.75980780889875710E+00  0.14490395078444376E+01
  0.42458340101408957E+02  0.14138591039829004E+00  0.34449788049831487E+00
  0.89510375752227791E+01  0.25403695033715673E+00  0.13013265120545217E+00
  0.11877656373794949E+02  0.12167207486511113E+00  0.53454045622532816E-01
  0.26254023168264396E+02  0.14645353616369033E+00  0.38141418991164293E-01
  0.37984224276888931E+02  0.46633029339841585E-01  0.14483019467836297E+00
  0.40989689096904947E+02  0.92837256490501874E+00  0.18422187460695136E+01
  0.42495400547996525E+02  0.14356930534202425E+00  0.34972037934637829E+00
  0.89588177082990121E+01  0.25446772350848057E+00  0.13025350910081668E+00
  0.11878296998400209E+02  0.12165922917861031E+00  0.53448094714887526E-01
  0.26622123214915337E+02  0.14679423929872831E+00  0.35568218211664983E-01
  0.37661467466094571E+02  0.40535194464331348E-01  0.13709105257826112E+00
  0.40862574847297438E+02  0.76427008887615200E+00  0.14568206376565556E+01
  0.42676178994982962E+02  0.18347343517814074E+00  0.45047756530829364E+00
  0.87475114467406563E+01  0.21676270266693454E+00  0.11322596520849054E+00
  0.11598598807994300E+02  0.13870013583791993E+00  0.60574983423493774E-01
  0.24814170996656554E+02  0.60174597789203040E-01  0.21367214693258550E-01
  0.38305847539109791E+02  0.44543072617687807E-01  0.13226911481222170E+00
  0.40692139703145315E+02  0.39915516349743368E+00  0.77016488322763721E+00
  0.42895637256770932E+02  0.22097263834614156E+00  0.55209377349077315E+00
  0.82607089249345265E+01  0.15145400019515526E+00  0.82030366218560913E-01
  0.11238775820628739E+02  0.18070870467843586E+00  0.77890332809449361E-01
  0.21520901094625639E+02  0.27248402498397564E-01  0.12878776120819667E-01
  0.39358918188037599E+02  0.45792889447028480E-01  0.10419524596346783E+00
  0.40683949501204310E+02  0.38298929522992292E+00  0.73944134847487220E+00
  0.43123056088083430E+02  0.28467140614151976E+00  0.71518449824705421E+00
  0.72386937015771755E+01  0.76285395529051586E-01  0.43377269819345636E-01
  0.10254923417749367E+02  0.23123613276071861E+00  0.10642167462818991E+00
  0.17946694282644639E+02  0.13214695153758648E-01  0.72280438987946671E-02
  0.40498269270115401E+02  0.15571079460539181E+00  0.30982397705878156E+00
  0.40792780846200714E+02  0.88964843084080336E+00  0.16809309307259825E+01
  0.43232966055898224E+02  0.21615541029601729E+00  0.52534810560009870E+00
  0.86739581480189027E+01  0.20163367011076869E+00  0.10587352509995146E+00
  0.86739581480189187E+01  0.20163367011077152E+00  0.10587352509995324E+00
  0.19371093498807166E+02  0.17133538829750657E-01  0.89958423541945439E-02
  0.40479528400683343E+02  0.13562970461455029E+00  0.26974916817648881E+00
  0.40479528400683343E+02  0.13562970461455029E+00  0.26974916817648881E+00
  0.43547714982112296E+02  0.42841170961890579E-01  0.77386763715759130E-01
  0.89519158737217168E+01  0.25408729315089851E+00  0.13014738607297505E+00
  0.96696085114774224E+01  0.28451814919269530E+00  0.13500046871281404E+00
  0.22275807924549731E+02  0.31068739333338403E-01  0.14087165053309899E-01
  0.40386759041771377E+02  0.76258597532853634E-01  0.15050595386610274E+00
  0.40548627593721235E+02  0.22285372670092152E+00  0.44258452305698970E+00
  0.42713901952167838E+02  0.20347310937777824E+00  0.50159140682466219E+00
  0.91723154548743331E+01  0.29259209689688964E+00  0.14483522473415791E+00
  0.11418479930641086E+02  0.16092894040926126E+00  0.69621650344432393E-01
  0.24646058364221915E+02  0.57521190060921108E-01  0.20909430815719166E-01
  0.39232647297437204E+02  0.43523618180487895E-01  0.10099170512670036E+00
  0.40803091415972851E+02  0.93545373902834905E+00  0.17636218736276168E+01
  0.42440677353851733E+02  0.13885494929578385E+00  0.33838747977663347E+00
  0.93838616909334309E+01  0.45555476714729964E+00  0.21929762571293562E+00
  0.12936066313006625E+02  0.14757279552093019E+00  0.61607291966048701E-01
  0.26336100670991254E+02  0.15602562842605555E+00  0.39901848079665514E-01
  0.37555987927792273E+02  0.37458526898534843E-01  0.13132144986758248E+00
  0.40924690898594768E+02  0.10708841252459107E+01  0.21171712902745026E+01
  0.42742833306183250E+02  0.21488760333953152E+00  0.53122084027401217E+00
  0.94253065159997860E+01  0.55881168291253880E+00  0.26702682506099551E+00
  0.13500659758366133E+02  0.15216900503050598E+00  0.61589046088249513E-01
  0.26912760157959422E+02  0.13519483084289419E+00  0.29692981099325545E-01
  0.36701182082042919E+02  0.28112061858216450E-01  0.13914301094210177E+00
  0.40766877390212514E+02  0.69360569008886419E+00  0.13242955381209336E+01
  0.43067985368789074E+02  0.27027440048701018E+00  0.67647710225804625E+00
  0.92892331587678125E+01  0.43322958494626690E+00  0.20888846849441053E+00
  0.13266847005107662E+02  0.16870785141099473E+00  0.68568799684167250E-01
  0.25780327070244681E+02  0.99838240733155822E-01  0.28861030230341284E-01
  0.37026434654079736E+02  0.33551499048397493E-01  0.14321509569473842E+00
  0.40559681551694432E+02  0.23140611096220295E+00  0.45943106934856187E+00
  0.43322753955391484E+02  0.12288664719212232E+00  0.29232718267156321E+00
  0.89882124408744559E+01  0.25632097124084324E+00  0.13076199362587387E+00
  0.12708090514234470E+02  0.13145128819362614E+00  0.55845971673552881E-01
  0.23480412007615652E+02  0.42579513070416616E-01  0.17325248978118719E-01
  0.38042825623545909E+02  0.46774979541128650E-01  0.14360492397631663E+00
  0.40545165537460640E+02  0.21931203796480883E+00  0.43557622826077608E+00
  0.43377243368264345E+02  0.10651310407778691E+00  0.24650407562166188E+00
  0.91112792443191228E+01  0.28228377536960453E+00  0.14077940848261145E+00
  0.91112792443191317E+01  0.28228377536960508E+00  0.14077940848261181E+00
  0.25047447495664098E+02  0.65006411717691295E-01  0.22179381249628552E-01
  0.40635923831498907E+02  0.29431581455141326E+00  0.57493097810448557E+00
  0.40635923831498928E+02  0.29431581455144573E+00  0.57493097810454419E+00
  0.41759763749990363E+02  0.45831597842838107E-01  0.10578013972228394E+00
  0.92504738385741909E+01  0.52647369178430425E+00  0.25116961772850371E+00
  0.99689952308690319E+01  0.28668316425261836E+00  0.13337814607165027E+00
  0.27288095198152345E+02  0.12311267081607727E+00  0.24080589056796418E-01
  0.39520489630120693E+02  0.45632269636104582E-01  0.10269086058275405E+00
  0.40864991281456703E+02  0.75823039893954680E+00  0.14463047890699552E+01
  0.41633960356189625E+02  0.40985433184501506E-01  0.94485130263540718E-01
  0.94178534669663314E+01  0.55301934962571209E+00  0.26436054319116881E+00
  0.11777062256669002E+02  0.13238587338175314E+00  0.57541216275345301E-01
  0.28582676344608569E+02  0.58804395352764875E-01  0.81507974425786261E-02
  0.37419341957019995E+02  0.34639208306404282E-01  0.12813575655639509E+00
  0.40976427255853189E+02  0.10029870323043224E+01  0.19909456303818767E+01
  0.42319007113861012E+02  0.10258894230267314E+00  0.24993941943122200E+00
  0.94865825839612263E+01  0.68028216790053642E+00  0.32155830671977015E+00
  0.13332488982502204E+02  0.16688558857888783E+00  0.67637037466892466E-01
  0.28787180850771520E+02  0.51994478146419970E-01  0.67989171834748402E-02
  0.35991326778253097E+02  0.18295394522224388E-01  0.14367854208102357E+00
  0.40827129384282536E+02  0.91346607645359346E+00  0.17239457456868570E+01
  0.42904650702951180E+02  0.22185816109107787E+00  0.55450577629575593E+00
  0.94446935258000089E+01  0.52395134991493364E+00  0.25064860803179712E+00
  0.13721686884280569E+02  0.40927992543667213E+00  0.15444362656793315E+00
  0.27627430832824921E+02  0.10745470068922856E+00  0.19216182722093380E-01
  0.36025138578164466E+02  0.18921935704742827E-01  0.14709501142020784E+00
  0.40606312759090613E+02  0.25835650567448110E+00  0.50927216201183190E+00
  0.43290394319921049E+02  0.14597420428294686E+00  0.34990855373137847E+00
  0.92545724149971580E+01  0.56233889940915405E+00  0.26754738590978039E+00
  0.92545724149971882E+01  0.56233889940940474E+00  0.26754738590989463E+00
  0.29800860791952722E+02  0.32897403945760455E-01  0.36728915358698534E-02
  0.39089031573017948E+02  0.39953171119576032E-01  0.96524316977971800E-01
  0.41030158276965302E+02  0.73839038148725977E+00  0.14790961417108082E+01
  0.41030158276965309E+02  0.73839038148724767E+00  0.14790961417107948E+01
  0.93186550581752456E+01  0.45718595733962553E+00  0.21977067862866284E+00
  0.10051626835705630E+02  0.27278027527445170E+00  0.12644554638560651E+00
  0.31153725138393071E+02  0.19042796181318562E-01  0.13261440508687730E-02
  0.37349095762923355E+02  0.34022654516643894E-01  0.12945341586224579E+00
  0.41118573462710415E+02  0.28599124923068664E+00  0.56502369103866235E+00
  0.41571349417464972E+02  0.36515686045068281E-01  0.84216901871457139E-01
  0.94158695816282947E+01  0.54991582848306608E+00  0.26292538055751513E+00
  0.11845624043685728E+02  0.12243892207965866E+00  0.53802122416211351E-01
  0.30734672772211390E+02  0.20973177874481094E-01  0.18001259671705766E-02
  0.36054112484771515E+02  0.19381935573581879E-01  0.14915492541023950E+00
  0.41009338807522624E+02  0.82114007738420891E+00  0.16346349710261276E+01
  0.42322132021028736E+02  0.10358381825035413E+00  0.25238225633390438E+00
  0.92649847966119978E+01  0.59655170743838415E+00  0.28328422927631292E+00
  0.92649847966120262E+01  0.59655170743826691E+00  0.28328422927626057E+00
  0.32349498402940625E+02  0.81023480153358390E-01  0.22116527993633754E-03
  0.37205764589577257E+02  0.33944627573556888E-01  0.21468644681638610E+00
  0.41199366162526189E+02  0.11956768346205025E+00  0.23959207157748477E+00
  0.41199366162526196E+02  0.11956768346202365E+00  0.23959207157743645E+00
  0.67217787776139106E+01  0.42117298327777823E-01  0.24488155744726490E-01
  0.83173476619290128E+01  0.15337289110393304E+00  0.82693210169304643E-01
  0.14802729451505812E+02  0.87804064917416137E-02  0.49970324680758292E-02
  0.40807376150381089E+02  0.94354552490345867E+00  0.17782339695217628E+01
  0.41006098498097614E+02  0.83924735200935663E+00  0.16697257758896900E+01
  0.43651146547249027E+02  0.40233278885754224E-01  0.70924927800208648E-01
  0.78856632372339250E+01  0.12761035366921100E+00  0.70371037919683257E-01
  0.97229902730457489E+01  0.29230576145895787E+00  0.13808919090357186E+00
  0.18877291350795417E+02  0.16155228117446071E-01  0.86157089768534000E-02
  0.40425544829675843E+02  0.87451272361394508E-01  0.17260930333172636E+00
  0.40841818051904610E+02  0.84677642089507021E+00  0.16042063944155844E+01
  0.43105759315868347E+02  0.28727226732691752E+00  0.72199642271034137E+00
  0.85190249204587030E+01  0.17400263004989561E+00  0.92261687922993940E-01
  0.10496292915902821E+02  0.19436627536939372E+00  0.88450592300251693E-01
  0.22845509088184180E+02  0.35199397950337920E-01  0.15258252153726367E-01
  0.39523097180126655E+02  0.45595829337508893E-01  0.10259974580194499E+00
  0.40797412462900972E+02  0.91467457877733138E+00  0.17260912359462754E+01
  0.42658151748802219E+02  0.17393055294558785E+00  0.42626325483793409E+00
  0.88110596040668963E+01  0.23138021394959341E+00  0.12015774795533059E+00
  0.10975709439888343E+02  0.18952315558675958E+00  0.82675172061666580E-01
  0.25852196120710563E+02  0.10520774682977060E+00  0.29955763209973996E-01
  0.38405183754239005E+02  0.42877494087291364E-01  0.12645590669842674E+00
  0.40925347056331930E+02  0.10747754797874660E+01  0.21254111733570547E+01
  0.42431070038995458E+02  0.13700850128772835E+00  0.33392252200353129E+00
  0.89222262019018768E+01  0.25184443127326595E+00  0.12935791998138307E+00
  0.11148412961414953E+02  0.18634387826227564E+00  0.80475895002005901E-01
  0.27009557967508769E+02  0.13445860398563403E+00  0.28556918172626237E-01
  0.37865856581580417E+02  0.45402630165648813E-01  0.14490214128654483E+00
  0.41008910172043315E+02  0.82355758429882087E+00  0.16393328959722726E+01
  0.42380948113649318E+02  0.12307647227751091E+00  0.30006006267776175E+00
  0.88638123439415999E+01  0.24299248860926273E+00  0.12551748770612409E+00
  0.96103376368172615E+01  0.27473182128365042E+00  0.13108586098949937E+00
  0.19764279906400873E+02  0.18029525821994036E-01  0.93144784021270913E-02
  0.40303321252457629E+02  0.64890017766278091E-01  0.12932796925188941E+00
  0.40743970182562641E+02  0.55712833368127623E+00  0.10707591984936147E+01
  0.43143679950133524E+02  0.27755519209531732E+00  0.69667427840982432E+00
  0.93670355340885134E+01  0.42398742094456676E+00  0.20466989746977676E+00
  0.11021428536055963E+02  0.18945814089673668E+00  0.82372180871397804E-01
  0.22620014277849599E+02  0.33395550931346489E-01  0.14760154891481140E-01
  0.39471768953720321E+02  0.46121180535938160E-01  0.10401837225129726E+00
  0.40823545661907779E+02  0.92562907382876081E+00  0.17458547797084234E+01
  0.42730863235237720E+02  0.21078339508858709E+00  0.52049287507375219E+00
  0.96112329751847394E+01  0.27486049297953880E+00  0.13113537763274108E+00
  0.12348811549965410E+02  0.12360258500839896E+00  0.53542844204109936E-01
  0.25038833345390739E+02  0.64796171976293587E-01  0.22143886839880174E-01
  0.38070472971205227E+02  0.46759570958638377E-01  0.14285003068241234E+00
  0.40937099574478246E+02  0.10829104411547372E+01  0.21467498013532769E+01
  0.42752800828816603E+02  0.21752121844344180E+00  0.53820763591579679E+00
  0.97589850481730060E+01  0.29582491914173253E+00  0.13937373000039935E+00
  0.12989806471483712E+02  0.15193700173743915E+00  0.63139468443829533E-01
  0.26423723791805557E+02  0.16052783573063389E+00  0.40379710205918275E-01
  0.37078068854002915E+02  0.33859236058176471E-01  0.14193275637752600E+00
  0.40939609737261868E+02  0.10808740663311509E+01  0.21437456784193532E+01
  0.42882534209204778E+02  0.22008265262883930E+00  0.54953581745721991E+00
  0.97023636302961336E+01  0.28960587735456983E+00  0.13703786647446850E+00
  0.12865975952988085E+02  0.14209964836160524E+00  0.59661256631610919E-01
  0.26041432672028741E+02  0.12073653028054442E+00  0.33064840242207738E-01
  0.37149222964019891E+02  0.33995166434075783E-01  0.13911350489872723E+00
  0.40814885073577237E+02  0.94369669841050274E+00  0.17784768666205821E+01
  0.43026963368288989E+02  0.25310968839432091E+00  0.63270461654665811E+00
  0.94532437573522952E+01  0.49366901454719170E+00  0.23637806125446026E+00
  0.12310388739900738E+02  0.12343527428772789E+00  0.53549516452639383E-01
  0.23966140286884986E+02  0.49491662813075737E-01  0.19264508250743231E-01
  0.38093249779308877E+02  0.46694744024052326E-01  0.14211435663526070E+00
  0.40721832396859035E+02  0.47095602364648703E+00  0.90766239658625258E+00
  0.43126727441956234E+02  0.28321054175120453E+00  0.71131749070811712E+00
  0.88861721592233458E+01  0.24704286761062719E+00  0.12732950226612449E+00
  0.11420449438144589E+02  0.16067437398382756E+00  0.69517665417775626E-01
  0.21242830680306000E+02  0.25763594376825492E-01  0.12337478471355854E-01
  0.39331603546735394E+02  0.45443232177796410E-01  0.10373080689621626E+00
  0.40755041522279356E+02  0.61606591023691037E+00  0.11809240957227867E+01
  0.43119314376205843E+02  0.28591515298914960E+00  0.71848055764442031E+00
  0.97084749562566994E+01  0.29045922880609104E+00  0.13737433498457996E+00
  0.99987072237106993E+01  0.28212423647325791E+00  0.13107260683943431E+00
  0.24723703339491703E+02  0.58676237251966870E-01  0.21110199989700398E-01
  0.39681349383669257E+02  0.41587273428620376E-01  0.93283199980912460E-01
  0.40820715567119407E+02  0.93340846436626279E+00  0.17598859006522223E+01
  0.42233422538179774E+02  0.78655675741505879E-01  0.19083177508976643E+00
  0.99672278464913546E+01  0.28693634922837197E+00  0.13350727960667474E+00
  0.11699019681393670E+02  0.12968934155125739E+00  0.56875112408013698E-01
  0.26520515727447641E+02  0.15655970107852704E+00  0.38734325758081861E-01
  0.38017116553061761E+02  0.46747143465939743E-01  0.14422305840483104E+00
  0.40987107287546941E+02  0.94214144895910645E+00  0.18691881370009651E+01
  0.42487124022676504E+02  0.14336391474783552E+00  0.34924018093637493E+00
  0.10109038523663408E+02  0.26147756452720156E+00  0.12093751249944529E+00
  0.13295268642211584E+02  0.16837980829188504E+00  0.68338550155574856E-01
  0.27521937868790939E+02  0.11168992470167166E+00  0.20528049949315955E-01
  0.36444498785746461E+02  0.23195740644282870E-01  0.13673328606547946E+00
  0.40953173596993018E+02  0.10956391536278465E+01  0.21803112065873895E+01
  0.42899288009577077E+02  0.22131017916062309E+00  0.55301827324397845E+00
  0.10101613258144738E+02  0.26299209195688988E+00  0.12167092768103718E+00
  0.13743874693501857E+02  0.18665054915915016E+00  0.74433987645857194E-01
  0.27323572718501119E+02  0.12121949814878653E+00  0.23480787680491041E-01
  0.36008301815031480E+02  0.18620547685849073E-01  0.14552218404046607E+00
  0.40782216697190023E+02  0.81325830570565205E+00  0.15426774354762984E+01
  0.43206924157979380E+02  0.26324232071050691E+00  0.65530876670276483E+00
  0.99355885694907240E+01  0.29105255235497718E+00  0.13563673869384776E+00
  0.13335727835164100E+02  0.16670227411160021E+00  0.67556084940749384E-01
  0.25756992196196236E+02  0.98144492214167323E-01  0.28514213709923377E-01
  0.36806108083294895E+02  0.30301320161192174E-01  0.14180976004659182E+00
  0.40679405836119948E+02  0.37410787188316391E+00  0.72267951961344579E+00
  0.43308653322607810E+02  0.13120432052516723E+00  0.31348663302321533E+00
  0.98457755982769779E+01  0.29782178761528977E+00  0.13949893468252617E+00
  0.10310211217616152E+02  0.22059073699828957E+00  0.10132461351469457E+00
  0.29113790669318615E+02  0.46156009684531471E-01  0.54460969388147283E-02
  0.37980312936837912E+02  0.46612489584986386E-01  0.14488423116958982E+00
  0.41067767830697598E+02  0.66052062268670686E+00  0.12847894413643164E+01
  0.41853069538671917E+02  0.46218980054330255E-01  0.10714453518818562E+00
  0.10085000125207051E+02  0.26630011847461671E+00  0.12328042169265824E+00
  0.12038377857899746E+02  0.12091761099185737E+00  0.52948001623219915E-01
  0.29753332902754988E+02  0.33942370556153026E-01  0.37871779217998041E-02
  0.36190231865270292E+02  0.20794050268552428E-01  0.14919527656693538E+00
  0.41064715407094447E+02  0.66067652837684931E+00  0.12876717282800010E+01
  0.42452637992549846E+02  0.14069592542264098E+00  0.34283542786199389E+00
  0.10168796384473238E+02  0.24901469398971549E+00  0.11493349840654164E+00
  0.13548538896888193E+02  0.15144870201261562E+00  0.61253303048220256E-01
  0.28979853079210407E+02  0.48268371035586184E-01  0.59216505963742500E-02
  0.35434878816148441E+02  0.74118458827419310E-02  0.10774411432936469E+00
  0.40899059382388288E+02  0.79303713510817953E+00  0.15354444446174529E+01
  0.42966989915306094E+02  0.23427424024438007E+00  0.58624071673484546E+00
  0.98114361822595146E+01  0.29809241352863480E+00  0.13993225028283740E+00
  0.10428764518200293E+02  0.20185621135446372E+00  0.92230117692627220E-01
  0.31464425371549655E+02  0.16158869378750156E-01  0.99694678954363085E-03
  0.36446992315472990E+02  0.23232269366984696E-01  0.13668201915866451E+00
  0.41167662821357055E+02  0.17114563269506200E+00  0.34121156434624805E+00
  0.41847978102515420E+02  0.46233271537549823E-01  0.10714055164303334E+00
  0.10380315310428074E+02  0.20872859027550369E+00  0.95598400158592667E-01
  0.11902608427770467E+02  0.12123229208817966E+00  0.53245740409837483E-01
  0.24594783281068079E+02  0.56810189211413675E-01  0.20783884191067279E-01
  0.38056561566432372E+02  0.46779192613180941E-01  0.14325604948611959E+00
  0.40919218805041908E+02  0.10196101667474580E+01  0.20096180330861055E+01
  0.42885458449877142E+02  0.22022946823397990E+00  0.54998417981097092E+00
  0.10721626627788369E+02  0.18609501071131884E+00  0.83087525102148618E-01
  0.13169377190198484E+02  0.16570891846663563E+00  0.67796748046034347E-01
  0.26275723953563173E+02  0.14927831334194192E+00  0.38681624766786937E-01
  0.36640454244626149E+02  0.26811651706970769E-01  0.13763410414848870E+00