 -0.14067624356227977E-05  0.67753740269533265E+07  0.78233420881676460E+07
 -0.71582288711292188E-06  0.59321300514064068E+07  0.68496709582423512E+07
 -0.57675463193800523E-06  0.22592247056040862E+07  0.26086659800135591E+07
  0.48535018054055598E+02  0.22339439188818008E+13  0.19346981680059954E+13
  0.48535018054055612E+02  0.62798207138321960E+12  0.54386135335656671E+12
  0.48535018054079636E+02  0.79076916933559937E+12  0.68484246641025415E+12
  0.19611418543119326E+01  0.97945442267351849E-04  0.11235233498375274E-03
  0.19611422468993265E+01  0.10325938278868560E-03  0.11848455987992684E-03
  0.41534782581593266E+01  0.47711819447312864E-03  0.54546997161725869E-03
  0.48472600461252249E+02  0.22992792066291241E-01  0.27918442012965755E-01
  0.48472600477157279E+02  0.22860266764733437E-01  0.27837404329863941E-01
  0.51642335545635490E+02  0.55052861059661749E-02  0.47379412230465169E-02
  0.38324487420272302E+01  0.38981190508457087E-03  0.44031404039745310E-03
  0.38324493871153833E+01  0.38620272027499355E-03  0.43619233749719400E-03
  0.82580303336754124E+01  0.24347335223013828E-02  0.26765495985646673E-02
  0.48293530820623957E+02  0.31750889768396039E-01  0.40021761807191664E-01
  0.48293530871837952E+02  0.31629701269491189E-01  0.39939920638905634E-01
  0.51941099849072259E+02  0.59323111563318650E-02  0.50509239110577793E-02
  0.55328365242549546E+01  0.81290520924906181E-03  0.89441358836897294E-03
  0.55328371768653364E+01  0.83987328294755795E-03  0.92443665358224382E-03
  0.12272868863454406E+02  0.15197147257458668E-01  0.15092236592588930E-01
  0.48022660371664550E+02  0.87804882984055185E-01  0.12077895312179660E+00
  0.48022660446875406E+02  0.89138375896794991E-01  0.12198575138809270E+00
  0.52238215990144631E+02  0.11290946566775786E-01  0.94979206694913963E-02
  0.69989750982010630E+01  0.14865224118610645E-02  0.15842435164228066E-02
  0.69989754782315465E+01  0.15125188333618223E-02  0.16112767313421815E-02
  0.16168688269578574E+02  0.15787643163045432E-01  0.13109489442741658E-01
  0.47700948856589669E+02  0.34899407646304434E-01  0.45260637800401467E-01
  0.47700948912371800E+02  0.34576623330316456E-01  0.44962350888575350E-01
  0.52323487373047222E+02  0.97268839118823409E-02  0.81478577178543659E-02
  0.81941117437072837E+01  0.24563977322635566E-02  0.25206773627211303E-02
  0.81941118516613489E+01  0.23880238105419773E-02  0.24500594060520853E-02
  0.19924821811229002E+02  0.13286379392770623E-01  0.10189233904270456E-01
  0.47380789791844343E+02  0.26856233165600159E-01  0.31777629550622050E-01
  0.47380789810492196E+02  0.26474487777952232E-01  0.31294774052980555E-01
  0.52031937023423289E+02  0.74590383111103713E-02  0.63033315967116312E-02
  0.91147157948533408E+01  0.35574617413944142E-02  0.35171255700179121E-02
  0.91147164328113579E+01  0.35092998200803053E-02  0.34696058079809718E-02
  0.23522228155467712E+02  0.15178982831213200E-02  0.17910145392579220E-02
  0.47115154526721803E+02  0.27154067701702596E-01  0.30730914438305192E-01
  0.47115154650116679E+02  0.26289536364430870E-01  0.29756577133035721E-01
  0.51291613371283511E+02  0.44949372085338066E-02  0.38977353816722483E-02
  0.97907546873805114E+01  0.47803316809324021E-02  0.45828624113894018E-02
  0.97907556579224160E+01  0.48520482673809050E-02  0.46537782171572209E-02
  0.26935889742132520E+02  0.25446658822640888E-02  0.30157371468780446E-02
  0.46942571923965978E+02  0.34201801182237923E-01  0.37861652770570763E-01
  0.46942572126368624E+02  0.35203585295825020E-01  0.38841285735984984E-01
  0.50130410184601779E+02  0.51876330588779595E-02  0.47965989392068512E-02
  0.10274990032262874E+02  0.65629488473277382E-02  0.61534230776161269E-02
  0.10274990940559862E+02  0.64705559526434921E-02  0.60689158706488840E-02
  0.30130269146926167E+02  0.42603916385804200E-02  0.52536873570245939E-02
  0.46874499111284543E+02  0.40931382611285559E-01  0.45321168423686491E-01
  0.46874499310363070E+02  0.39947818674428821E-01  0.44178682621231889E-01
  0.48648901231483919E+02  0.17364147529647551E-01  0.20809894811455825E-01
  0.10621945275295451E+02  0.81153600738595125E-02  0.75071553176018664E-02
  0.10621945698151704E+02  0.80124309026804435E-02  0.74145570361301280E-02
  0.33059299296335332E+02  0.80843349054963865E-02  0.11134094718418390E-01
  0.46892161853015409E+02  0.38125455726316530E-01  0.42492369088872745E-01
  0.46892161948778089E+02  0.39460169695291474E-01  0.43835263473659285E-01
  0.46976837071045004E+02  0.33521445017507444E-01  0.33107537466736718E-01
  0.10866886786904884E+02  0.98645811982407509E-02  0.90719854652233402E-02
  0.10866887082858105E+02  0.10083658140238110E-01  0.92722198734318129E-02
  0.35663160436804333E+02  0.34532541427538762E-02  0.82867103633977764E-02
  0.45240844695612672E+02  0.35550381879159543E-01  0.36644983133964297E-01
  0.46955035744746766E+02  0.34839956394370888E-01  0.39004073832314481E-01
  0.46955035813261830E+02  0.33491015168912029E-01  0.37642907399736976E-01
  0.11018787654060842E+02  0.11888446750451240E-01  0.10923205553634139E-01
  0.11018788578738206E+02  0.12207845093227041E-01  0.11218345353094517E-01
  0.37808393617779387E+02  0.27689057121064796E-02  0.46356075997807901E-02
  0.43609773375363517E+02  0.10757296004252391E-01  0.63219791044992939E-02
  0.47016786630734174E+02  0.29541375615289960E-01  0.33466659330606614E-01
  0.47016786847462313E+02  0.29005412724545689E-01  0.33087849664346157E-01
  0.11071057503794982E+02  0.20994009004052811E+12  0.19551793618750757E+12
  0.11071058676296902E+02  0.97040201069510315E+11  0.90373876326138535E+11
  0.38860602648041436E+02  0.21011465528842647E+10  0.48836053605115404E+10
  0.42728620557214327E+02  0.57668193568203716E+10  0.24811449173963346E+10
  0.47041787648880003E+02  0.28729368554995471E+12  0.30848557286655371E+12
  0.47041787924844719E+02  0.29678363570040643E+12  0.31867554059907324E+12
  0.11018787654060834E+02  0.11888446750451202E-01  0.10923205553634111E-01
  0.11018788578738201E+02  0.12207845093226975E-01  0.11218345353094428E-01
  0.37808393617779402E+02  0.27689057121064878E-02  0.46356075997807597E-02
  0.43609773375363488E+02  0.10757296004252492E-01  0.63219791044993468E-02
  0.47016786630734174E+02  0.29541375615289880E-01  0.33466659330606517E-01
  0.47016786847462313E+02  0.29005412724545789E-01  0.33087849664346143E-01
  0.10866886786904873E+02  0.98645811982406521E-02  0.90719854652232795E-02
  0.10866887082858078E+02  0.10083658140237902E-01  0.92722198734316169E-02
  0.35663160436804354E+02  0.34532541427538181E-02  0.82867103633977000E-02
  0.45240844695612644E+02  0.35550381879150446E-01  0.36644983133954631E-01
  0.46955035744746766E+02  0.34839956394370805E-01  0.39004073832314440E-01
  0.46955035813261837E+02  0.33491015168911460E-01  0.37642907399736469E-01
  0.10621945275295465E+02  0.81153600738595628E-02  0.75071553176019549E-02
  0.10621945698151745E+02  0.80124309026806395E-02  0.74145570361303162E-02
  0.33059299296335340E+02  0.80843349054964229E-02  0.11134094718418412E-01
  0.46892161853015402E+02  0.38125455726317654E-01  0.42492369088874229E-01
  0.46892161948778103E+02  0.39460169695289142E-01  0.43835263473656821E-01
  0.46976837071044990E+02  0.33521445017509838E-01  0.33107537466738925E-01
  0.10274990032262782E+02  0.65629488473274667E-02  0.61534230776159101E-02
  0.10274990940559842E+02  0.64705559526434270E-02  0.60689158706488276E-02
  0.30130269146926153E+02  0.42603916385804035E-02  0.52536873570245670E-02
  0.46874499111284543E+02  0.40931382611285566E-01  0.45321168423686470E-01
  0.46874499310363070E+02  0.39947818674428683E-01  0.44178682621231771E-01
  0.48648901231483919E+02  0.17364147529647496E-01  0.20809894811455749E-01
  0.97907546873806233E+01  0.47803316809327178E-02  0.45828624113897027E-02
  0.97907556579224604E+01  0.48520482673810299E-02  0.46537782171573250E-02
  0.26935889742132538E+02  0.25446658822641018E-02  0.30157371468780498E-02
  0.46942571923965978E+02  0.34201801182237909E-01  0.37861652770570797E-01
  0.46942572126368624E+02  0.35203585295824916E-01  0.38841285735985213E-01
  0.50130410184601786E+02  0.51876330588779716E-02  0.47965989392068538E-02
  0.91147157948532787E+01  0.35574617413942308E-02  0.35171255700177395E-02
  0.91147164328113988E+01  0.35092998200804007E-02  0.34696058079810594E-02
  0.23522228155467726E+02  0.15178982831213249E-02  0.17910145392579287E-02
  0.47115154526721810E+02  0.27154067701702683E-01  0.30730914438305307E-01
  0.47115154650116693E+02  0.26289536364431057E-01  0.29756577133036005E-01
  0.51291613371283503E+02  0.44949372085338153E-02  0.38977353816722522E-02
  0.81941117437073192E+01  0.24563977322636043E-02  0.25206773627211737E-02
  0.81941118516613685E+01  0.23880238105419976E-02  0.24500594060521091E-02
  0.19924821811229009E+02  0.13286379392770631E-01  0.10189233904270538E-01
  0.47380789791844336E+02  0.26856233165599954E-01  0.31777629550621841E-01
  0.47380789810492196E+02  0.26474487777952208E-01  0.31294774052980395E-01
  0.52031937023423311E+02  0.74590383111108821E-02  0.63033315967120536E-02
  0.69989750982010834E+01  0.14865224118610775E-02  0.15842435164228244E-02
  0.69989754782315332E+01  0.15125188333618084E-02  0.16112767313421728E-02
  0.16168688269578610E+02  0.15787643163045356E-01  0.13109489442741496E-01
  0.47700948856589662E+02  0.34899407646304052E-01  0.45260637800400579E-01
  0.47700948912371786E+02  0.34576623330315366E-01  0.44962350888573401E-01
  0.52323487373047222E+02  0.97268839118823426E-02  0.81478577178543763E-02
  0.55328365242549458E+01  0.81290520924905639E-03  0.89441358836896752E-03
  0.55328371768653408E+01  0.83987328294756120E-03  0.92443665358224588E-03
  0.12272868863454375E+02  0.15197147257458458E-01  0.15092236592588848E-01
  0.48022660371664557E+02  0.87804882984050439E-01  0.12077895312178875E+00
  0.48022660446875392E+02  0.89138375896804609E-01  0.12198575138810758E+00
  0.52238215990144624E+02  0.11290946566775604E-01  0.94979206694912211E-02
  0.38324487420271875E+01  0.38981190508455938E-03  0.44031404039743949E-03
  0.38324493871153553E+01  0.38620272027498352E-03  0.43619233749718316E-03
  0.82580303336754124E+01  0.24347335223013859E-02  0.26765495985646725E-02
  0.48293530820623950E+02  0.31750889768396559E-01  0.40021761807192552E-01
  0.48293530871837945E+02  0.31629701269491640E-01  0.39939920638906223E-01
  0.51941099849072238E+02  0.59323111563316881E-02  0.50509239110576292E-02
  0.19611418543118664E+01  0.97945442267345832E-04  0.11235233498374597E-03
  0.19611422468992661E+01  0.10325938278868048E-03  0.11848455987992084E-03
  0.41534782581592742E+01  0.47711819447311872E-03  0.54546997161724676E-03
  0.48472600461252249E+02  0.22992792066291259E-01  0.27918442012965724E-01
  0.48472600477157251E+02  0.22860266764735182E-01  0.27837404329866186E-01
  0.51642335545635461E+02  0.55052861059660674E-02  0.47379412230464284E-02
  0.28072558209468044E+01  0.16793782414279456E-03  0.19174405694306689E-03
  0.28072561773144087E+01  0.17300465319426868E-03  0.19755427286652583E-03
  0.41080877280327632E+01  0.46166624432857767E-03  0.52944436240134744E-03
  0.48442064864710126E+02  0.24541927388176635E-01  0.30159510386516500E-01
  0.48442064885377953E+02  0.24521002765060553E-01  0.30169115325026752E-01
  0.51700483237963319E+02  0.56744650344988058E-02  0.48685626343425515E-02
  0.39876721373035076E+01  0.43776989154666220E-03  0.49470570678361657E-03
  0.43396391051993852E+01  0.49012908210939162E-03  0.55102281964981414E-03
  0.73631518968032079E+01  0.16593922286735855E-02  0.18519790883764456E-02
  0.48284943401017522E+02  0.32253470669296624E-01  0.40921197869306508E-01
  0.48307800149994492E+02  0.30703175495489538E-01  0.38586476262626047E-01
  0.51934721056515073E+02  0.58417493612705667E-02  0.49576102349183073E-02
  0.54068272407528113E+01  0.75935041981640538E-03  0.84056427697506520E-03
  0.58881933683562249E+01  0.96655044054831413E-03  0.10571628167586012E-02
  0.11181485752559841E+02  0.11700334053864583E-01  0.12070269667621755E-01
  0.48018452495721071E+02  0.90393252964403356E-01  0.12474586194027282E+00
  0.48100003813756892E+02  0.51346097126568603E-01  0.68030623007919927E-01
  0.52198396373370443E+02  0.99577596328204662E-02  0.83673819749067926E-02
  0.68581315134031442E+01  0.13871116090120553E-02  0.14922908921216960E-02
  0.72638519661197911E+01  0.16698797792704999E-02  0.17642675508185654E-02
  0.14994294255776490E+02  0.20229571228767954E-01  0.17421043423686965E-01
  0.47683094480336962E+02  0.33326442468708597E-01  0.43018492632662185E-01
  0.47837044447389765E+02  0.48905419900158696E-01  0.68274312521796734E-01
  0.52309020203882397E+02  0.16113522604431937E-01  0.13529210487389134E-01
  0.81553727610590787E+01  0.23814269456206099E-02  0.24701711322569976E-02
  0.83992840176308441E+01  0.26022706718216025E-02  0.26400246339572603E-02
  0.18710547597091615E+02  0.11532665946530955E-01  0.92853241061538697E-02
  0.47337983838805897E+02  0.26011011540646181E-01  0.30615220448264154E-01
  0.47549807166861584E+02  0.29283398681777664E-01  0.36419328129133767E-01
  0.52098149089276184E+02  0.88696220509987354E-02  0.75026912097704238E-02
  0.92173082190799711E+01  0.37752754563579512E-02  0.37632335292252122E-02
  0.92814579209541517E+01  0.38933161145826515E-02  0.37990832653169234E-02
  0.22293784987239675E+02  0.12990214266973058E-02  0.15298698501813634E-02
  0.47046716336294523E+02  0.25953936879213119E-01  0.29424961276981704E-01
  0.47275133419953001E+02  0.25614499198244212E-01  0.29533653249558540E-01
  0.51473455573647293E+02  0.46055539183838439E-02  0.39873375842454000E-02
  0.99356901576595718E+01  0.52717167897835216E-02  0.49810859246888165E-02
  0.10027934048532298E+02  0.55358737485812258E-02  0.53167633422752493E-02
  0.25715808157398428E+02  0.21564785578554132E-02  0.25314848000342841E-02
  0.46857240641218098E+02  0.38566115640976617E-01  0.42812473872889716E-01
  0.47046123183892369E+02  0.26205776927061431E-01  0.29156468703056933E-01
  0.50440867956365722E+02  0.51021204666257588E-02  0.46912074666012040E-02
  0.10411288874799396E+02  0.68750486470734078E-02  0.63520892536406059E-02
  0.10616145452939818E+02  0.80372708976280422E-02  0.74889069080845650E-02
  0.28942084006657147E+02  0.35527205724925981E-02  0.42602007889618754E-02
  0.46784930442713360E+02  0.39421989697199310E-01  0.44070388487697162E-01
  0.46870482083370426E+02  0.40550962793791764E-01  0.43404635282366405E-01
  0.49098836408827644E+02  0.97807054980972342E-02  0.10824258914143932E-01
  0.10760266389078593E+02  0.86970805669769353E-02  0.79325220913188162E-02
  0.11033246317827881E+02  0.12054339145138935E-01  0.11029460742963518E-01
  0.31926938729603602E+02  0.60063155401030221E-02  0.77571587893160146E-02
  0.46612980352189602E+02  0.41728623429073422E-01  0.42067489994732386E-01
  0.46808423098437892E+02  0.38986321029180260E-01  0.43746636533056819E-01
  0.47708087856529914E+02  0.34512204994555117E-01  0.47428840258544061E-01
  0.11016195789592036E+02  0.11998758643796278E-01  0.10909496214079781E-01
  0.11326428061345055E+02  0.12823514266984436E-01  0.11594542936753485E-01
  0.34611213443944017E+02  0.61402650219681233E-02  0.10570766074680658E-01
  0.45503278905462288E+02  0.10333374398956147E+00  0.10689671422081953E+00
  0.46880913088330637E+02  0.39987108322657228E-01  0.44837968717524532E-01
  0.47144875052158639E+02  0.25756813266008396E-01  0.31554607545357070E-01
  0.11186230632988837E+02  0.12452233326381587E-01  0.11306249340913697E-01
  0.11520061758309144E+02  0.13571697096498339E-01  0.12187029110602423E-01
  0.36891596234822401E+02  0.17955208198340146E-02  0.54871789757710999E-02
  0.43942060471085867E+02  0.10788682900428954E-01  0.71354081031581957E-02
  0.46950655419961457E+02  0.33974940253104526E-01  0.38326475380004894E-01
  0.47112106029931262E+02  0.25600746312170880E-01  0.30876284274569891E-01
  0.11260870952780577E+02  0.12817933749637647E-01  0.11645479367100055E-01
  0.11615890216216570E+02  0.14074981515348875E-01  0.12601899552504514E-01
  0.38387116382366280E+02  0.41063849237693087E-02  0.44422168271952252E-02
  0.42751282414080450E+02  0.13123826268752614E-01  0.63930421362964453E-02
  0.46980640488407111E+02  0.30605900225009242E-01  0.34731549373433715E-01
  0.47138262492350655E+02  0.25973030456129823E-01  0.31259920204861000E-01
  0.11231497520327979E+02  0.12715823728068520E-01  0.11569979987381558E-01
  0.11608629610036544E+02  0.14054392024354458E-01  0.12569343716178414E-01
  0.38037914267567608E+02  0.30951601136078419E-02  0.44840206627569067E-02
  0.43033100153125197E+02  0.12875031307030960E-01  0.70439204297127527E-02
  0.46960040896307859E+02  0.33351868543300439E-01  0.37575648478576119E-01
  0.47150200932277578E+02  0.26007580451777774E-01  0.31372840089559643E-01
  0.11099971863598222E+02  0.11628633731434447E-01  0.10608826885863469E-01
  0.11501091004556452E+02  0.13484299496582567E-01  0.12062374386889500E-01
  0.36194730901968533E+02  0.24317179737756208E-02  0.64121514660656943E-02
  0.44427251980531601E+02  0.10315510304572529E-01  0.75532713428375321E-02
  0.46905178615372414E+02  0.36094571661953415E-01  0.40379249755623105E-01
  0.47150477863514389E+02  0.25926056148868688E-01  0.31479578997195723E-01
  0.10872134214889167E+02  0.99622888738323898E-02  0.91491860767966768E-02
  0.11304804704968863E+02  0.12894623005507463E-01  0.11574548814298612E-01
  0.33759407144937398E+02  0.12271559457101244E-01  0.17468495955672150E-01
  0.45918530637671552E+02  0.47662928102589409E-01  0.46809282907001863E-01
  0.46851756524498754E+02  0.38366886602791389E-01  0.42727857185803790E-01
  0.47271720510797437E+02  0.24474220422160787E-01  0.30810606251439769E-01
  0.10540410628396250E+02  0.74907148712271459E-02  0.69758897270170029E-02
  0.11025463246672338E+02  0.12230306581869374E-01  0.11063588865635588E-01
  0.30964240314820071E+02  0.48874013107648240E-02  0.61194886247042651E-02
  0.46647248971836994E+02  0.40136013626854157E-01  0.42323103948713144E-01
  0.46841862630482389E+02  0.38665707184427245E-01  0.42825701122092587E-01
  0.48166783023628781E+02  0.39882411531228630E-01  0.54573040470937605E-01
  0.10071326973738092E+02  0.56767343096066052E-02  0.54103531308509166E-02
  0.10646014846813175E+02  0.81942224009735644E-02  0.75170770470720776E-02
  0.27889276248698405E+02  0.29792656464447138E-02  0.35318947494704356E-02
  0.46806112635483714E+02  0.39334251096978384E-01  0.42989245820116116E-01
  0.46909672717983298E+02  0.35720032202786293E-01  0.39337576329478541E-01
  0.49566367414640894E+02  0.64976936976504206E-02  0.65068398927642527E-02
  0.94109441568667496E+01  0.40687217371544737E-02  0.40026683020584547E-02
  0.10123489413001215E+02  0.59328930701713399E-02  0.55956955051361546E-02
  0.24589230215759855E+02  0.18151124842929486E-02  0.21290686270467479E-02
  0.46971574489260121E+02  0.32522297263220278E-01  0.35926426126081872E-01
  0.47069926131743635E+02  0.25897144994199824E-01  0.29181849457787682E-01
  0.50804327078530072E+02  0.46860696910237757E-02  0.42195295872958479E-02
  0.85067666493589407E+01  0.26529282207654018E-02  0.27068047035381879E-02
  0.94042626971116210E+01  0.41080175960922635E-02  0.40237822901904073E-02
  0.21107745873847168E+02  0.14017471629772270E-02  0.15161148656720651E-02
  0.47222115199029844E+02  0.25859965712635921E-01  0.29711508769318364E-01
  0.47312994618233596E+02  0.25814555645130469E-01  0.29929271855989731E-01
  0.51695353643053771E+02  0.55987229923499917E-02  0.48181432707850025E-02
  0.73328243298852254E+01  0.16984618083001916E-02  0.17999536156162398E-02
  0.84471135223945701E+01  0.26536251779734820E-02  0.27107765263435974E-02
  0.17479738650004450E+02  0.13085481999485251E-01  0.10500724939738750E-01
  0.47539111273354642E+02  0.28954499187870384E-01  0.36196678481802989E-01
  0.47608206490557208E+02  0.30747705212569185E-01  0.38407246505346306E-01
  0.52170431336308567E+02  0.11598923311193979E-01  0.98090865183866269E-02
  0.59077272043197979E+01  0.97095410870748345E-03  0.10627304909351298E-02
  0.72396438666027070E+01  0.16561726923438949E-02  0.17629130965869555E-02
  0.13741412996910260E+02  0.24143649702858299E-01  0.22059894497869163E-01
  0.47870822666298288E+02  0.55876731705593631E-01  0.79949526420352371E-01
  0.47913082859146542E+02  0.54907882318837982E-01  0.75981890455647710E-01
  0.52257486859680043E+02  0.11480464935234877E-01  0.96686759840304091E-02
  0.43119234638148640E+01  0.48838385190590910E-03  0.54871075118231199E-03
  0.57961138620771040E+01  0.95082189121370529E-03  0.10468346084908243E-02
  0.99642871618249558E+01  0.50454242536789595E-02  0.53618152097301246E-02
  0.48160214974579972E+02  0.41610266551282554E-01  0.54329370805229767E-01
  0.48183389821224203E+02  0.39151386555256268E-01  0.50521937922103348E-01
  0.52079070442667089E+02  0.84713278319542736E-02  0.71587213803409287E-02
  0.27576441211150793E+01  0.16380504905343251E-03  0.18690048822886935E-03
  0.40649233950345565E+01  0.45532138194811947E-03  0.51446843631328956E-03
  0.64265081626345220E+01  0.10481748599827157E-02  0.11805529371186655E-02
  0.48365978202432139E+02  0.27801659120417026E-01  0.34606345566221927E-01
  0.48380033153031931E+02  0.27225630893050592E-01  0.33823808706820814E-01
  0.51816291501903464E+02  0.56058613020033305E-02  0.47918959071013073E-02
  0.54742587906376352E+01  0.78784935532044600E-03  0.86859826155306690E-03
  0.54742596315590761E+01  0.80589877341871307E-03  0.88873829016465806E-03
  0.81910958308978490E+01  0.23288643285758232E-02  0.25891545920020262E-02
  0.48144907262343949E+02  0.44129298596016782E-01  0.57876374188508356E-01
  0.48144907357976088E+02  0.43564101369175018E-01  0.57200612502796740E-01
  0.52138460820021812E+02  0.93853063955621693E-02  0.78652259065026195E-02
  0.66133316259939017E+01  0.11861829123319761E-02  0.12818894224296564E-02
  0.67724380261606330E+01  0.13097735667305802E-02  0.14034299497523942E-02
  0.10951917312039988E+02  0.95923762740226480E-02  0.10018406918898127E-01
  0.47883350769203638E+02  0.53568816906629339E-01  0.75669977305145561E-01
  0.47934715793900565E+02  0.58465656980346344E-01  0.81574547932221658E-01
  0.52352182835613746E+02  0.62780928764712817E-02  0.51941491859222467E-02
  0.78135582927234335E+01  0.19162700231664025E-02  0.20150881767843761E-02
  0.79870015467450788E+01  0.21528160824070769E-02  0.22177523817780574E-02
  0.14302415359294114E+02  0.33262963444903197E-01  0.29166656517289041E-01
  0.47538771504406142E+02  0.28994683148384107E-01  0.36281526010275879E-01
  0.47726230372391008E+02  0.36911794826255923E-01  0.49069490782321125E-01
  0.52401176670264832E+02  0.53855675637494325E-02  0.44480174622006643E-02
  0.90118838458079118E+01  0.32837112350033427E-02  0.32345313355148322E-02
  0.90505417366037619E+01  0.33420657911269274E-02  0.33797225461663955E-02
  0.17738848342712881E+02  0.12675538549123573E-01  0.10155011589316081E-01
  0.47174517722404161E+02  0.26614433878225353E-01  0.30510502225700859E-01
  0.47515111230220974E+02  0.28422665773526524E-01  0.35322732772393312E-01
  0.52157534208294194E+02  0.12855040696189812E-01  0.10842717943265688E-01
  0.98175626539456555E+01  0.49439850045867647E-02  0.46698955655525140E-02
  0.10178389188566618E+02  0.60871173473680540E-02  0.58850539261772420E-02
  0.21124192175035923E+02  0.13181096320681398E-02  0.14482526739535131E-02
  0.46862594130226441E+02  0.39003617498044471E-01  0.43426813986686692E-01
  0.47294796814066942E+02  0.25537790868348779E-01  0.29732655055965035E-01
  0.51550258091386901E+02  0.49240411883621433E-02  0.42775909850342360E-02
  0.10422372746081596E+02  0.69523009169945461E-02  0.63450485304031908E-02
  0.11109468256320143E+02  0.11676323827452347E-01  0.10805138719012645E-01
  0.24402734586530517E+02  0.17858784633126923E-02  0.20794274009116867E-02
  0.46659297629386735E+02  0.38540975219852974E-01  0.43694666537733177E-01
  0.47061888913939676E+02  0.26026798641451493E-01  0.28843102674812979E-01
  0.50592315785951953E+02  0.48185517807042225E-02  0.44773506132282362E-02
  0.10871453935243718E+02  0.10097851292049950E-01  0.90116318361378126E-02
  0.11820145649004782E+02  0.14303142593037985E-01  0.12712036391738787E-01
  0.27534117611207083E+02  0.28772385794295936E-02  0.33663953469348158E-02
  0.46584110470124678E+02  0.39061485471778123E-01  0.44931497346801068E-01
  0.46793172873016303E+02  0.40655860233456034E-01  0.42304237376373593E-01
  0.49395169635011079E+02  0.68580325864795672E-02  0.75493969343206685E-02
  0.11212815525477456E+02  0.12801189342665210E-01  0.11312003965753228E-01
  0.12333276690777192E+02  0.16497943418958355E-01  0.14173509276222941E-01
  0.30470429515297365E+02  0.45933350466648704E-02  0.55906097108407889E-02
  0.46341259827947631E+02  0.42437728922300522E-01  0.41505815364235019E-01
  0.46613900297219253E+02  0.39029154987670338E-01  0.44919054001086145E-01
  0.48233598079681045E+02  0.33256163634467983E-01  0.50003396898834651E-01
  0.11475638133051261E+02  0.13520378207000992E-01  0.11886598516332668E-01
  0.12691506924801503E+02  0.18433486047448020E-01  0.15445066677317241E-01
  0.33146357773584583E+02  0.85415070593992844E-02  0.11546513468705636E-01
  0.45356030385928698E+02  0.87779967482665436E-01  0.90709891268920692E-01
  0.46696104074027531E+02  0.38346719286373662E-01  0.43780836122741106E-01
  0.47579855212068466E+02  0.27217847567685690E-01  0.40962510377238991E-01
  0.11662443019499452E+02  0.14307932831300474E-01  0.12568438321015445E-01
  0.12930022460538703E+02  0.20371964192659735E-01  0.16814726586339982E-01
  0.35458894088798900E+02  0.40304691416277582E-02  0.88053976766993419E-02
  0.43984285575469144E+02  0.10814512078961615E-01  0.73755619267461825E-02
  0.46773301849916223E+02  0.39269314014916450E-01  0.44583096598308988E-01
  0.47396499956121446E+02  0.24697606866217421E-01  0.34553324939262831E-01
  0.11759091855326231E+02  0.14327815172807956E-01  0.12592066089367606E-01
  0.13063196473130141E+02  0.20354108825917483E-01  0.16643876790100712E-01
  0.37149236590493111E+02  0.18992286936286770E-02  0.47346883069758136E-02
  0.42748253941092813E+02  0.12606776230497493E-01  0.67479550621751035E-02
  0.46806407863055540E+02  0.38837680044645752E-01  0.43961448705608357E-01
  0.47382687451449470E+02  0.24571266128898737E-01  0.33902245203125209E-01
  0.11752954906577150E+02  0.14315059806967382E-01  0.12609983281964136E-01
  0.13091767326738578E+02  0.20377285133744556E-01  0.16596060491322277E-01
  0.37477672299652760E+02  0.26704279644757900E-02  0.47627445847660873E-02
  0.42454233332353866E+02  0.14491085608104248E-01  0.76498995529954029E-02
  0.46786838321549716E+02  0.39198511221130279E-01  0.44246886607459110E-01
  0.47421997195299205E+02  0.25264655469833610E-01  0.35215290424646287E-01
  0.11643874506840287E+02  0.14219589580655716E-01  0.12590755138064061E-01
  0.13019926711264299E+02  0.20452635231095279E-01  0.16668024487105762E-01
  0.36156732547294503E+02  0.25080078596801483E-02  0.64019620832244340E-02
  0.43384270863629432E+02  0.11280098093873866E-01  0.70549370222665444E-02
  0.46735062891975389E+02  0.39328218528286427E-01  0.44307622384238084E-01
  0.47491790850054386E+02  0.25841408834496874E-01  0.37334759495255526E-01
  0.11438891711256113E+02  0.13231588765742534E-01  0.11824141705401695E-01
  0.12863833443951295E+02  0.20194789142607080E-01  0.16512148299473402E-01
  0.34000732897995633E+02  0.91768256641116923E-02  0.13464818733783262E-01
  0.44671698209718258E+02  0.10862188473485168E-01  0.86649820890627345E-02
  0.46689046650508921E+02  0.38572480067780461E-01  0.43389220212743711E-01
  0.47654765089681852E+02  0.29120529242111566E-01  0.44523537935447201E-01
  0.11134431471780450E+02  0.11982206341158430E-01  0.10874867317638735E-01
  0.12641302174893553E+02  0.18174695579235043E-01  0.14964301835788518E-01
  0.31412178374711740E+02  0.53408540323995881E-02  0.66350524272425233E-02
  0.45756787167665408E+02  0.54206104756049145E-01  0.55746885076224502E-01
  0.46688848677188950E+02  0.38701594290881228E-01  0.43249592715109079E-01
  0.48107160082757488E+02  0.45453690944145066E-01  0.72893674454122884E-01
  0.10701457534465689E+02  0.82855448967054570E-02  0.76868522971898015E-02
  0.12349990194608711E+02  0.16738913772759365E-01  0.14015748421606912E-01
  0.28525975536775512E+02  0.33093806436785777E-02  0.38880448156358278E-02
  0.46385068062951419E+02  0.42072188731624889E-01  0.43555545704368329E-01
  0.46763150806175794E+02  0.39933175810449445E-01  0.44066342330238290E-01
  0.49007559879572234E+02  0.10029421388063134E-01  0.12599257808062189E-01
  0.10088791140048249E+02  0.57203211327721279E-02  0.54860746261132650E-02
  0.11953424108779963E+02  0.14657940979897886E-01  0.12614961241888370E-01
  0.25421850472897361E+02  0.20488454988919157E-02  0.23758910792675550E-02
  0.46753470339281066E+02  0.40758733536385365E-01  0.43564248367115317E-01
  0.46921305171877258E+02  0.34806642680248363E-01  0.38136180940024113E-01
  0.50089454803682749E+02  0.50072574464607340E-02  0.50500093601317285E-02
  0.92461816738791107E+01  0.37883873354554562E-02  0.37762852262595674E-02
  0.11387942289254779E+02  0.12929810209515422E-01  0.11592504646949451E-01
  0.22166959914050377E+02  0.12756100314928937E-02  0.14902387157905883E-02
  0.47080811726666049E+02  0.26005115216537419E-01  0.29330688548105499E-01
  0.47152227670535716E+02  0.27272717231549486E-01  0.30645513071792883E-01
  0.51041068021840303E+02  0.45980915520785377E-02  0.42156855535385989E-02
  0.81550315925130672E+01  0.23482603792258500E-02  0.24352265899438819E-02
  0.10581468457514941E+02  0.77750277909954249E-02  0.73093025941256030E-02
  0.18830424380988095E+02  0.11808671039127017E-01  0.94155177591835736E-02
  0.47414535473884570E+02  0.27070977314478255E-01  0.32687046547135647E-01