 -0.13252837002376173E-05  0.13916669806955574E+26  0.16069204178952890E+26
 -0.68820497559279111E-06  0.86045921161611693E+24  0.99354909981477897E+24
 -0.48275072501121910E-06  0.36488295762509182E+24  0.42132053349194879E+24
  0.48535018054055591E+02  0.10837946036296812E-01  0.13650367556751742E-01
  0.48535018054055598E+02  0.10837946036118217E-01  0.13650367556205877E-01
  0.48535018054079629E+02  0.10807373759249986E-01  0.13556934558448431E-01
  0.38324487420271769E+01  0.41109636184865863E-03  0.46251362280977295E-03
  0.38324493871153362E+01  0.47282383144325418E-03  0.53266445716004590E-03
  0.82580303336754159E+01  0.24026323954864570E-02  0.26393671581154271E-02
  0.48293530820623950E+02  0.17321642149771468E-01  0.23855325437671909E-01
  0.48293530871837937E+02  0.17229539860878738E-01  0.23319265784323411E-01
  0.51941099849072259E+02  0.14271395088358684E-02  0.12316489210229486E-02
  0.69989750982011270E+01  0.16030954246668144E-02  0.16995408448640479E-02
  0.69989754782316185E+01  0.16276331315719999E-02  0.17250898722927417E-02
  0.16168688269578588E+02  0.14820243855399526E-01  0.12480030648475462E-01
  0.47700948856589662E+02  0.20688561563200078E-01  0.31311124736439551E-01
  0.47700948912371793E+02  0.21538468141675926E-01  0.32287875618234284E-01
  0.52323487373047215E+02  0.85242112155535532E-03  0.72901998928688063E-03
  0.91147157948533533E+01  0.36480830456698424E-02  0.35890735421722636E-02
  0.91147164328113668E+01  0.35710539347875918E-02  0.35171975603833405E-02
  0.23522228155467712E+02  0.15524220007994095E-02  0.18337204521232055E-02
  0.47115154526721803E+02  0.92820442220210471E-02  0.11688211114868905E-01
  0.47115154650116693E+02  0.90354176294223376E-02  0.11281686570449855E-01
  0.51291613371283511E+02  0.14425036739997936E-02  0.12916203361262864E-02
  0.10274990032262876E+02  0.75221607901199338E-02  0.70211229169367057E-02
  0.10274990940559883E+02  0.69263591116808841E-02  0.64656421770400690E-02
  0.30130269146926153E+02  0.41971474679355992E-02  0.52026910626090678E-02
  0.46874499111284543E+02  0.10601734744167347E-01  0.12577713387758770E-01
  0.46874499310363063E+02  0.10260946960603692E-01  0.12249334656884606E-01
  0.48648901231483933E+02  0.10205886210480528E-01  0.12358805452037417E-01
  0.10866886786904860E+02  0.11123631386135592E-01  0.10199937872832198E-01
  0.10866887082858085E+02  0.11826103939132008E-01  0.10846717591682591E-01
  0.35663160436804333E+02  0.34965419331598022E-02  0.73983126798908136E-02
  0.45240844695612651E+02  0.20341967173785315E-01  0.20818761070254242E-01
  0.46955035744746766E+02  0.10197120625474022E-01  0.12474271838459904E-01
  0.46955035813261837E+02  0.10512051814179583E-01  0.12829167502165593E-01
  0.11071057503794981E+02  0.36123791187541217E+12  0.33642212268792389E+12
  0.11071058676296897E+02  0.26851775760465982E+12  0.25007152035627664E+12
  0.38860602648041429E+02  0.68466564147376366E+10  0.15913391164332314E+11
  0.42728620557214363E+02  0.68771627611792230E-02  0.37077361408791756E-02
  0.47041787648880003E+02  0.96744649162980884E-02  0.12112443627754621E-01
  0.47041787924844719E+02  0.99785776848031003E-02  0.12524480741232495E-01
  0.10866886786904850E+02  0.11123631386135546E-01  0.10199937872832141E-01
  0.10866887082858034E+02  0.11826103939131707E-01  0.10846717591682339E-01
  0.35663160436804333E+02  0.34965419331598000E-02  0.73983126798908170E-02
  0.45240844695612665E+02  0.20341967173789968E-01  0.20818761070259213E-01
  0.46955035744746780E+02  0.10197120625473973E-01  0.12474271838459916E-01
  0.46955035813261837E+02  0.10512051814179586E-01  0.12829167502165563E-01
  0.10274990032262838E+02  0.75221607901198254E-02  0.70211229169366189E-02
  0.10274990940559853E+02  0.69263591116807905E-02  0.64656421770399857E-02
  0.30130269146926167E+02  0.41971474679355957E-02  0.52026910626090739E-02
  0.46874499111284543E+02  0.10601734744167344E-01  0.12577713387758793E-01
  0.46874499310363070E+02  0.10260946960603727E-01  0.12249334656884655E-01
  0.48648901231483919E+02  0.10205886210480649E-01  0.12358805452037642E-01
  0.91147157948533195E+01  0.36480830456697994E-02  0.35890735421722185E-02
  0.91147164328113845E+01  0.35710539347876095E-02  0.35171975603833679E-02
  0.23522228155467715E+02  0.15524220007994102E-02  0.18337204521232050E-02
  0.47115154526721803E+02  0.92820442220210419E-02  0.11688211114868889E-01
  0.47115154650116679E+02  0.90354176294224955E-02  0.11281686570449987E-01
  0.51291613371283503E+02  0.14425036739997973E-02  0.12916203361262898E-02
  0.69989750982011190E+01  0.16030954246668073E-02  0.16995408448640410E-02
  0.69989754782315678E+01  0.16276331315719591E-02  0.17250898722926966E-02
  0.16168688269578610E+02  0.14820243855399408E-01  0.12480030648475400E-01
  0.47700948856589662E+02  0.20688561563200075E-01  0.31311124736439537E-01
  0.47700948912371793E+02  0.21538468141675947E-01  0.32287875618234353E-01
  0.52323487373047215E+02  0.85242112155535575E-03  0.72901998928688041E-03
  0.38324487420272195E+01  0.41109636184866638E-03  0.46251362280978157E-03
  0.38324493871154632E+01  0.47282383144327651E-03  0.53266445716007148E-03
  0.82580303336754088E+01  0.24026323954864535E-02  0.26393671581154184E-02
  0.48293530820623950E+02  0.17321642149771457E-01  0.23855325437671930E-01
  0.48293530871837945E+02  0.17229539860878315E-01  0.23319265784322724E-01
  0.51941099849072252E+02  0.14271395088358751E-02  0.12316489210229525E-02
  0.54742587906376059E+01  0.69117419004545487E-03  0.76059973996126851E-03
  0.54742596315591268E+01  0.70205352073018511E-03  0.77294430651138129E-03
  0.81910958308978508E+01  0.23351863779700051E-02  0.25949128080812651E-02
  0.48144907262343956E+02  0.26993084118597261E-01  0.37812111793581425E-01
  0.48144907357976081E+02  0.26154758593833122E-01  0.37304918368180305E-01
  0.52138460820021812E+02  0.12175872739483185E-02  0.10344784188062899E-02
  0.78135582927234273E+01  0.21935068526509121E-02  0.23011526556980292E-02
  0.79870015467450326E+01  0.22811522802555955E-02  0.23483189281381729E-02
  0.14302415359294104E+02  0.31411315253630216E-01  0.27545046376626796E-01
  0.47538771504406135E+02  0.97410893593749444E-02  0.14303828579892885E-01
  0.47726230372391008E+02  0.22868115166343420E-01  0.35033477892858780E-01
  0.52401176670264832E+02  0.69820053195124461E-03  0.59095005917583071E-03
  0.98175626539456271E+01  0.48640652172856624E-02  0.45733991227375906E-02
  0.10178389188566584E+02  0.68459733047601832E-02  0.65851146465100785E-02
  0.21124192175035930E+02  0.46276891680542961E-02  0.38049620654580984E-02
  0.46862594130226448E+02  0.10482765540135020E-01  0.12474630015041822E-01
  0.47294796814066956E+02  0.75261736327124889E-02  0.99783382299708200E-02
  0.51550258091386908E+02  0.13761076879695243E-02  0.12199038011503783E-02
  0.10871453935243743E+02  0.11489056440579324E-01  0.10224315983888017E-01
  0.11820145649004782E+02  0.14456507114976024E-01  0.12812458921962496E-01
  0.27534117611207076E+02  0.28013066287397737E-02  0.32872005779053036E-02
  0.46584110470124656E+02  0.16593119716501761E-01  0.19059043815912391E-01
  0.46793172873016303E+02  0.10666939060334378E-01  0.11674693163017816E-01
  0.49395169635011079E+02  0.36912545539235586E-02  0.42820634817725776E-02
  0.11475638133051241E+02  0.12896273526845133E-01  0.11290983510393440E-01
  0.12691506924801510E+02  0.19187984290502665E-01  0.16029614580868511E-01
  0.33146357773584590E+02  0.77041916270597409E-02  0.10536483722528108E-01
  0.45356030385928712E+02  0.54551960112357349E-01  0.55706767221864691E-01
  0.46696104074027524E+02  0.11845563030605600E-01  0.13859468533302381E-01
  0.47579855212068473E+02  0.10701519357571234E-01  0.18710302686024343E-01
  0.11759091855326222E+02  0.14241676232686575E-01  0.12477202004824491E-01
  0.13063196473130128E+02  0.20838528564678688E-01  0.17026609281922442E-01
  0.37149236590493118E+02  0.19491473704403147E-02  0.50327230113496870E-02
  0.42748253941092827E+02  0.65148835223088749E-02  0.40981133752716545E-02
  0.46806407863055576E+02  0.10418488908525033E-01  0.12433567516078603E-01
  0.47382687451449463E+02  0.69950937175978535E-02  0.11243151340718457E-01
  0.11643874506840261E+02  0.13793310585598339E-01  0.12170355093750650E-01
  0.13019926711264283E+02  0.20925277093908765E-01  0.17034495386848772E-01
  0.36156732547294503E+02  0.28180877457831066E-02  0.71419160504036508E-02
  0.43384270863629418E+02  0.70126998138962879E-02  0.49146608116588820E-02
  0.46735062891975396E+02  0.11065220130601060E-01  0.12913266543081900E-01
  0.47491790850054386E+02  0.81122840601437572E-02  0.13821928177630173E-01
  0.11134431471780452E+02  0.10539677101535184E-01  0.95098986401175797E-02
  0.12641302174893605E+02  0.18889538896107422E-01  0.15508320535609528E-01
  0.31412178374711736E+02  0.53299063513379975E-02  0.66849057761137242E-02
  0.45756787167665401E+02  0.31434796743811833E-01  0.32051003730146389E-01
  0.46688848677188979E+02  0.12188779554559328E-01  0.13930529712672987E-01
  0.48107160082757474E+02  0.26868539880074292E-01  0.45888207058568005E-01
  0.10088791140048205E+02  0.61014682301200364E-02  0.58219964293767879E-02
  0.11953424108779991E+02  0.14691286018313812E-01  0.12605858950454451E-01
  0.25421850472897372E+02  0.20729356566576186E-02  0.24055923289383004E-02
  0.46753470339281073E+02  0.10782496509142311E-01  0.12146845255656170E-01
  0.46921305171877279E+02  0.10610882168605800E-01  0.12560253427976098E-01
  0.50089454803682742E+02  0.19636889243181740E-02  0.20108932358908560E-02
  0.81550315925130334E+01  0.23720663071787780E-02  0.24593529373857200E-02
  0.10581468457514873E+02  0.74409808825964948E-02  0.69599336368851529E-02
  0.18830424380988113E+02  0.11135739950906455E-01  0.90042796593508626E-02
  0.47414535473884570E+02  0.77240334692107787E-02  0.10914369322365690E-01
  0.47429217598610009E+02  0.77545056716407873E-02  0.10860208087817083E-01
  0.51714608199776201E+02  0.14310730680071734E-02  0.12794254084765989E-02
  0.54809716941640430E+01  0.69280495959572893E-03  0.76245481590915358E-03
  0.78965779855936811E+01  0.22301173862826506E-02  0.23423259203618628E-02
  0.12436554751104818E+02  0.15432119691903013E-01  0.15158528008926067E-01
  0.47976741846102172E+02  0.47361157085036999E-01  0.71569685026267774E-01
  0.47980622139855683E+02  0.48713734736900438E-01  0.71813434893618855E-01
  0.52162901018248299E+02  0.11509284401814213E-02  0.98901192401820975E-03
  0.98279070857552462E+01  0.49072366219038276E-02  0.46000580342108553E-02
  0.98279088372403596E+01  0.49343770917910810E-02  0.46224356424543270E-02
  0.16189422902010442E+02  0.14353822130172146E-01  0.12471388279119889E-01
  0.46919363714692267E+02  0.10241558136857256E-01  0.12458908830779648E-01
  0.46919364081581563E+02  0.10479631982955066E-01  0.12709081390253242E-01
  0.52776881749103062E+02  0.16840611770620902E-03  0.13877698937936071E-03
  0.11242132235326578E+02  0.11440183803808969E-01  0.96873904780831604E-02
  0.11935391035284558E+02  0.14849531258104780E-01  0.12445777731209848E-01
  0.20750381522546647E+02  0.13896553558981639E-01  0.10801734090406001E-01
  0.46222979003117032E+02  0.18227951228057180E-01  0.22048410495905314E-01
  0.46439535965182138E+02  0.22804282806748996E-01  0.26598094691164899E-01
  0.52037064041203038E+02  0.13773471070649770E-02  0.11505111394769826E-02
  0.12093724520606678E+02  0.15539144602144598E-01  0.12370856830284018E-01
  0.14389102849050584E+02  0.40548627471423619E-01  0.27915459885041214E-01
  0.25503147305251563E+02  0.20633795356523911E-02  0.24894180299002699E-02
  0.45958397300893829E+02  0.29695825997996021E-01  0.38028935098762678E-01
  0.46138636739901280E+02  0.20166707818439614E-01  0.23189566763463759E-01
  0.50033262119470322E+02  0.19553218360454211E-02  0.19785959064952318E-02
  0.12675450552916717E+02  0.19624052646299798E-01  0.15343052293337068E-01
  0.16174890010253851E+02  0.16811914448171855E-01  0.10859097270609056E-01
  0.30037190802420241E+02  0.41419466897791085E-02  0.51588357729257517E-02
  0.44903775856563996E+02  0.75361228127764539E-02  0.69673102088797468E-02
  0.46115493200934445E+02  0.21439919430992466E-01  0.27028700215487929E-01
  0.48300888585750208E+02  0.14523490011534036E-01  0.26314116290099360E-01
  0.13021848395522722E+02  0.21113931260983012E-01  0.16507170762721766E-01
  0.16999387247108039E+02  0.15746613316392235E-01  0.95872892617141804E-02
  0.33823650332038845E+02  0.12256901062685743E-01  0.17567090668324101E-01
  0.42560361338113339E+02  0.58132929909397706E-02  0.38854674313168061E-02
  0.46238407385015670E+02  0.18074732533562399E-01  0.22103244814887658E-01
  0.47913781550918074E+02  0.29010887169195747E-01  0.61508205530689135E-01
  0.12985938601420484E+02  0.21017784853200785E-01  0.16570648805461243E-01
  0.17096780928957688E+02  0.15732878965571337E-01  0.94652894496030215E-02
  0.34718168946357238E+02  0.58201729182048127E-02  0.94592546619255303E-02
  0.41587441858812710E+02  0.90189937921830703E-02  0.57367047708712492E-02
  0.46143994032122372E+02  0.20214764142868717E-01  0.24859151015990018E-01
  0.48079262675264367E+02  0.29129667966819595E-01  0.58298660486689531E-01
  0.12595324678545079E+02  0.18573584599687491E-01  0.15114659235074690E-01
  0.16789613894288781E+02  0.15978598185330657E-01  0.95807036238212805E-02
  0.31465624440976118E+02  0.55177016700442786E-02  0.66525130233109015E-02
  0.43135630189629161E+02  0.65869052443473224E-02  0.52964020100781757E-02
  0.46109586471749729E+02  0.22207130795858763E-01  0.27005482871091922E-01
  0.48506681895644824E+02  0.90889729161878242E-02  0.16409156262789344E-01
  0.11789090140400500E+02  0.14329836436936236E-01  0.12522825544085452E-01
  0.16238521777593320E+02  0.16648287641682819E-01  0.10441850160351216E-01
  0.26657421284402076E+02  0.25261195686192206E-02  0.29023242343374674E-02
  0.45108290216034717E+02  0.64746015507477833E-02  0.64724671375598238E-02
  0.46392183384612430E+02  0.21677800322885351E-01  0.24633316594281075E-01
  0.49224866978444936E+02  0.41801640093898787E-02  0.60198534986916682E-02
  0.10241660695658338E+02  0.68855279702374206E-02  0.65732448791902161E-02
  0.14507078039720724E+02  0.22864979911296098E-01  0.16264373254399552E-01
  0.22061645231755236E+02  0.12798541998596273E-02  0.14872566245870799E-02
  0.46774738100829886E+02  0.10686830361339161E-01  0.11878943424139931E-01
  0.46916284394836097E+02  0.10637685336797131E-01  0.12518388076513646E-01
  0.50305760797671972E+02  0.21162944815782399E-02  0.22244216636563481E-02
  0.81550315925130672E+01  0.23720663071788001E-02  0.24593529373857369E-02
  0.10581468457514864E+02  0.74409808825965382E-02  0.69599336368851858E-02
  0.18830424380988067E+02  0.11135739950906469E-01  0.90042796593508747E-02
  0.47414535473884577E+02  0.77240334692110510E-02  0.10914369322366059E-01
  0.47429217598609995E+02  0.77545056716404777E-02  0.10860208087816599E-01
  0.51714608199776187E+02  0.14310730680071688E-02  0.12794254084765948E-02
  0.12314726426021295E+02  0.16906509575751353E-01  0.12785846403132932E-01
  0.12314727152732049E+02  0.16508077435133967E-01  0.12472952106666687E-01
  0.23790232727874614E+02  0.15372438480394488E-02  0.19627760039325724E-02
  0.45566193005984537E+02  0.41468496796988323E-01  0.58260681276994797E-01
  0.45566193202402580E+02  0.41736828493610337E-01  0.58858361266565101E-01
  0.51913922016789954E+02  0.15141876243906069E-02  0.12074532052799944E-02
  0.12968300280031020E+02  0.22062588035514724E-01  0.15620648152150883E-01
  0.14045320527656445E+02  0.32985519823622994E-01  0.21153021484576710E-01
  0.27255534895847056E+02  0.25095051735698143E-02  0.33675786902559002E-02
  0.45350339588486108E+02  0.44204458599725979E-01  0.66615673665427991E-01
  0.45355390291086529E+02  0.45401817754337062E-01  0.66441714368624560E-01
  0.50367863074219557E+02  0.24409116543988771E-02  0.21190400082621796E-02
  0.13498982970058426E+02  0.25225042180243247E-01  0.17332546210687701E-01
  0.16896685938516718E+02  0.16734669916317918E-01  0.89636913633822004E-02
  0.30001271941608856E+02  0.37674418386120455E-02  0.55493554467133258E-02
  0.44770723645725674E+02  0.72341167412234564E-02  0.72319602089943105E-02
  0.45544709414995808E+02  0.45057761902682077E-01  0.65789993050781190E-01
  0.48460264366959684E+02  0.10263246199052186E-01  0.15809702860494105E-01
  0.13859604736626260E+02  0.32035811887214792E-01  0.21826410990454567E-01
  0.19237278243811865E+02  0.14347430356263633E-01  0.71075860058009317E-02
  0.32351421196323969E+02  0.57889072522708911E-02  0.95284215147862367E-02
  0.42548978541513712E+02  0.59827701565824251E-02  0.37014167667878436E-02
  0.45674728909944179E+02  0.33006861376721403E-01  0.46392870434322289E-01
  0.47963025459448161E+02  0.35990719646668015E-01  0.81344668871226683E-01
  0.13857142388967862E+02  0.31909819545180920E-01  0.21882132667424309E-01
  0.20102731247590821E+02  0.17940789437350751E-01  0.82976039859830788E-02
  0.33836557569716057E+02  0.11238472876855308E-01  0.18724646679942298E-01
  0.40419456295243045E+02  0.69899309922956902E-02  0.39727165108297754E-02
  0.45541621028745311E+02  0.46390324677471242E-01  0.66193671677472282E-01
  0.48207054890669568E+02  0.18272630878815612E-01  0.40029958869497596E-01
  0.13560481211509851E+02  0.25661401232311563E-01  0.18302527265239062E-01
  0.19881229167426479E+02  0.17438443148371716E-01  0.80475966274825943E-02
  0.32073862556365491E+02  0.61557980920425729E-02  0.81713205183342602E-02
  0.40879624881332184E+02  0.86525581927950710E-02  0.60261407614580808E-02
  0.45473317990126105E+02  0.52336288093806707E-01  0.74150138810710059E-01
  0.48600630997966526E+02  0.82544273880098013E-02  0.16045588580052891E-01
  0.12983715828954736E+02  0.21103776861321831E-01  0.16492421981145436E-01
  0.18971836939805748E+02  0.13759726060932507E-01  0.70676583514903751E-02
  0.28762466423338925E+02  0.34326787642528400E-02  0.41152194328534014E-02
  0.42748298799928847E+02  0.57787328156570601E-02  0.46870905575510814E-02
  0.45791939393112074E+02  0.27411459567478983E-01  0.34865987133552795E-01
  0.48978373237939742E+02  0.50779047605810750E-02  0.83072110387000780E-02
  0.11789090140400498E+02  0.14329836436936257E-01  0.12522825544085452E-01
  0.16238521777593306E+02  0.16648287641682930E-01  0.10441850160351292E-01
  0.26657421284402073E+02  0.25261195686192232E-02  0.29023242343374713E-02
  0.45108290216034725E+02  0.64746015507478119E-02  0.64724671375598602E-02
  0.46392183384612437E+02  0.21677800322885434E-01  0.24633316594281158E-01
  0.49224866978444936E+02  0.41801640093898744E-02  0.60198534986916638E-02
  0.10088791140048244E+02  0.61014682301202793E-02  0.58219964293770073E-02
  0.11953424108779997E+02  0.14691286018313845E-01  0.12605858950454464E-01
  0.25421850472897376E+02  0.20729356566576199E-02  0.24055923289383087E-02
  0.46753470339281087E+02  0.10782496509142158E-01  0.12146845255656045E-01
  0.46921305171877258E+02  0.10610882168605821E-01  0.12560253427976033E-01
  0.50089454803682742E+02  0.19636889243181692E-02  0.20108932358908513E-02
  0.13467297243751563E+02  0.25479240469662948E-01  0.16596743888893081E-01
  0.13467298450522978E+02  0.25353739001647176E-01  0.16564501243933053E-01
  0.30681251044990386E+02  0.40603628283228466E-02  0.62019212195314815E-02
  0.45138279707827415E+02  0.57510137942549978E-02  0.78852151005625853E-02
  0.45138280067858261E+02  0.57062799950745183E-02  0.79453646507780841E-02
  0.49530251562532229E+02  0.32756976354501414E-02  0.28184539099996003E-02
  0.13896400939617308E+02  0.33415096340304602E-01  0.21218985336740954E-01
  0.15002775802752593E+02  0.24345375838782934E-01  0.14121656168087516E-01
  0.33280724402674139E+02  0.68756959680542134E-02  0.13022488513225954E-01
  0.45031014241933306E+02  0.61568728728601408E-02  0.70046429350736255E-02
  0.45300757691101801E+02  0.33454289980819084E-01  0.52608644544143386E-01
  0.47771157572543807E+02  0.28489867096941856E-01  0.37809359825357297E-01
  0.14206006563580541E+02  0.40942001575597194E-01  0.25646092446583797E-01
  0.17841375981122020E+02  0.15621335389774392E-01  0.77573667504704591E-02
  0.34740691135005726E+02  0.41480663393398277E-02  0.11769209136085526E-01
  0.43015864096464398E+02  0.80502759062668610E-02  0.39651408381394188E-02
  0.45420073536942731E+02  0.48262693986503180E-01  0.74491963065850236E-01
  0.47271478956675388E+02  0.63578113242325051E-02  0.11668002119919044E-01
  0.14210017313202135E+02  0.40819317379898364E-01  0.25680665329876354E-01
  0.20186293823012857E+02  0.18690186481969295E-01  0.78462306385079054E-02
  0.35643190251155247E+02  0.22205214266587652E-02  0.97661992408741311E-02
  0.39882734569809166E+02  0.70624485617513371E-02  0.23081844863519457E-02
  0.45280968849792941E+02  0.28518702889151197E-01  0.43931269670745954E-01
  0.47791223887788853E+02  0.21167785456080526E-01  0.51551524698932989E-01
  0.13984797399401488E+02  0.32720090308863983E-01  0.21433052929642111E-01
  0.20879765519617482E+02  0.21233975712547079E-01  0.82508095773626867E-02
  0.34511841927126603E+02  0.52536265639083757E-02  0.11842414412984384E-01
  0.39134564508569895E+02  0.72007594568087420E-02  0.42014587200939705E-02
  0.45177730758903209E+02  0.70475549509943893E-02  0.96369505541446816E-02
  0.48308175511683721E+02  0.12448875829754026E-01  0.27996818708352574E-01
  0.13560481211509826E+02  0.25661401232311167E-01  0.18302527265238851E-01
  0.19881229167426497E+02  0.17438443148371816E-01  0.80475966274826307E-02
  0.32073862556365484E+02  0.61557980920425642E-02  0.81713205183342550E-02
  0.40879624881332184E+02  0.86525581927950762E-02  0.60261407614580782E-02
  0.45473317990126155E+02  0.52336288093810981E-01  0.74150138810715652E-01
  0.48600630997966526E+02  0.82544273880098013E-02  0.16045588580052898E-01
  0.12595324678545122E+02  0.18573584599687904E-01  0.15114659235074998E-01
  0.16789613894288792E+02  0.15978598185330751E-01  0.95807036238212771E-02
  0.31465624440976107E+02  0.55177016700442691E-02  0.66525130233108668E-02
  0.43135630189629161E+02  0.65869052443473320E-02  0.52964020100781835E-02
  0.46109586471749722E+02  0.22207130795859238E-01  0.27005482871092550E-01
  0.48506681895644839E+02  0.90889729161877913E-02  0.16409156262789226E-01
  0.11134431471780466E+02  0.10539677101535238E-01  0.95098986401175867E-02
  0.12641302174893580E+02  0.18889538896107179E-01  0.15508320535609287E-01
  0.31412178374711740E+02  0.53299063513380035E-02  0.66849057761137415E-02
  0.45756787167665408E+02  0.31434796743811562E-01  0.32051003730146153E-01
  0.46688848677188957E+02  0.12188779554559928E-01  0.13930529712673624E-01
  0.48107160082757495E+02  0.26868539880071918E-01  0.45888207058563966E-01
  0.14177947299610398E+02  0.41687417222920409E-01  0.25546164590679259E-01
  0.14177948417950734E+02  0.40667363432555198E-01  0.24933437734617942E-01
  0.36472826475779740E+02  0.18365649169491825E-02  0.85646511968073893E-02
  0.45386937331703237E+02  0.46171147741846268E-01  0.73173110681080844E-01
  0.45386937681032677E+02  0.46305104345747028E-01  0.73399485429498090E-01
  0.46179452937403937E+02  0.25526088639356428E-01  0.14703684360034417E-01
  0.14375074760437737E+02  0.43813301691577364E-01  0.26603230849621601E-01
  0.15493398178170844E+02  0.22526987391316297E-01  0.12876385462546961E-01
  0.38205559201117815E+02  0.20772999562648884E-02  0.66896529320122867E-02
  0.43481813298653790E+02  0.99846314625041989E-02  0.24930031889686005E-02
  0.45477694863350123E+02  0.49982673056699199E-01  0.77904346482842904E-01
  0.46120717902889268E+02  0.18781053521404772E-01  0.27155493306304814E-01
  0.14371863447722708E+02  0.43938261183984445E-01  0.26762258671145098E-01
  0.18074728855073293E+02  0.15215389696605970E-01  0.75075817549823919E-02
  0.38070421163412846E+02  0.22126412166986257E-03  0.80958008822349416E-02
  0.40732612386564711E+02  0.15614203415851189E-01  0.33404395592359615E-03
  0.45369509358805118E+02  0.45195906184116279E-01  0.71080142398887006E-01
  0.46975722513097750E+02  0.82633633763932856E-02  0.14735401362897063E-01
  0.14210017313202112E+02  0.40819317379898711E-01  0.25680665329876444E-01
  0.20186293823012843E+02  0.18690186481969264E-01  0.78462306385078864E-02
  0.35643190251155239E+02  0.22205214266587622E-02  0.97661992408741762E-02
  0.39882734569809173E+02  0.70624485617513536E-02  0.23081844863519284E-02
  0.45280968849792920E+02  0.28518702889145136E-01  0.43931269670736434E-01
  0.47791223887788838E+02  0.21167785456080033E-01  0.51551524698931761E-01
  0.13857142388967866E+02  0.31909819545180955E-01  0.21882132667424361E-01
  0.20102731247590842E+02  0.17940789437350776E-01  0.82976039859830944E-02
  0.33836557569716057E+02  0.11238472876855287E-01  0.18724646679942242E-01
  0.40419456295243037E+02  0.69899309922956399E-02  0.39727165108297555E-02
  0.45541621028745311E+02  0.46390324677471319E-01  0.66193671677472310E-01
  0.48207054890669575E+02  0.18272630878815310E-01  0.40029958869496902E-01
  0.12985938601420486E+02  0.21017784853200747E-01  0.16570648805461309E-01
  0.17096780928957688E+02  0.15732878965571379E-01  0.94652894496030111E-02
  0.34718168946357231E+02  0.58201729182048006E-02  0.94592546619255962E-02
  0.41587441858812703E+02  0.90189937921830981E-02  0.57367047708712241E-02
  0.46143994032122350E+02  0.20214764142869716E-01  0.24859151015991246E-01
  0.48079262675264360E+02  0.29129667966821086E-01  0.58298660486692820E-01
  0.11643874506840305E+02  0.13793310585598550E-01  0.12170355093750810E-01
  0.13019926711264317E+02  0.20925277093908776E-01  0.17034495386848741E-01
  0.36156732547294482E+02  0.28180877457831266E-02  0.71419160504036690E-02
  0.43384270863629403E+02  0.70126998138963061E-02  0.49146608116588993E-02
  0.46735062891975389E+02  0.11065220130601209E-01  0.12913266543081982E-01
  0.47491790850054393E+02  0.81122840601439185E-02  0.13821928177630496E-01
  0.14446146462356918E+02  0.13436420469669280E+32  0.78684177235343310E+31
  0.14446147122887098E+02  0.13436420534153266E+32  0.78684176741881343E+31
  0.40093010048068102E+02  0.34312725154189086E+07  0.15590572084437757E+35
  0.43276230664577263E+02  0.13489081737609239E-01  0.16868179213951451E-15
  0.45558795786956779E+02  0.40895073511550813E-01  0.62926769933421250E-01
  0.45558795996385896E+02  0.40638574513413968E-01  0.62306583772242040E-01
  0.14375074760437734E+02  0.43813301691577655E-01  0.26603230849621792E-01
  0.15493398178170857E+02  0.22526987391316252E-01  0.12876385462546890E-01
  0.38205559201117836E+02  0.20772999562649309E-02  0.66896529320123283E-02
  0.43481813298653769E+02  0.99846314625042856E-02  0.24930031889686065E-02
  0.45477694863350116E+02  0.49982673056698741E-01  0.77904346482842099E-01
  0.46120717902889268E+02  0.18781053521404831E-01  0.27155493306304845E-01
  0.14206006563580495E+02  0.40942001575597367E-01  0.25646092446584043E-01
  0.17841375981122031E+02  0.15621335389774386E-01  0.77573667504704739E-02
  0.34740691135005740E+02  0.41480663393397964E-02  0.11769209136085491E-01
  0.43015864096464384E+02  0.80502759062668575E-02  0.39651408381394049E-02
  0.45420073536942702E+02  0.48262693986502340E-01  0.74491963065849182E-01
  0.47271478956675395E+02  0.63578113242325112E-02  0.11668002119919040E-01
  0.13859604736626267E+02  0.32035811887214952E-01  0.21826410990454615E-01
  0.19237278243811886E+02  0.14347430356263716E-01  0.71075860058009517E-02
  0.32351421196323969E+02  0.57889072522708971E-02  0.95284215147862783E-02
  0.42548978541513712E+02  0.59827701565824364E-02  0.37014167667878389E-02
  0.45674728909944179E+02  0.33006861376721423E-01  0.46392870434322442E-01
  0.47963025459448161E+02  0.35990719646668348E-01  0.81344668871226933E-01
  0.13021848395522710E+02  0.21113931260982974E-01  0.16507170762721738E-01
  0.16999387247108050E+02  0.15746613316392218E-01  0.95872892617141735E-02
  0.33823650332038859E+02  0.12256901062685673E-01  0.17567090668324025E-01
  0.42560361338113289E+02  0.58132929909396683E-02  0.38854674313167203E-02
  0.46238407385015662E+02  0.18074732533562395E-01  0.22103244814887638E-01
  0.47913781550918081E+02  0.29010887169196590E-01  0.61508205530691189E-01
  0.11759091855326236E+02  0.14241676232686620E-01  0.12477202004824547E-01
  0.13063196473130152E+02  0.20838528564678684E-01  0.17026609281922386E-01
  0.37149236590493103E+02  0.19491473704403152E-02  0.50327230113497261E-02
  0.42748253941092798E+02  0.65148835223087839E-02  0.40981133752716033E-02
  0.46806407863055540E+02  0.10418488908525137E-01  0.12433567516078587E-01
  0.47382687451449478E+02  0.69950937175979932E-02  0.11243151340718693E-01
  0.13896400939617321E+02  0.33415096340304672E-01  0.21218985336740940E-01
  0.15002775802752621E+02  0.24345375838782903E-01  0.14121656168087479E-01
  0.33280724402674153E+02  0.68756959680542368E-02  0.13022488513226063E-01
  0.45031014241933306E+02  0.61568728728601460E-02  0.70046429350736411E-02
  0.45300757691101801E+02  0.33454289980819021E-01  0.52608644544143476E-01
  0.47771157572543814E+02  0.28489867096942408E-01  0.37809359825357831E-01
  0.13498982970058412E+02  0.25225042180243101E-01  0.17332546210687614E-01
  0.16896685938516750E+02  0.16734669916317932E-01  0.89636913633821796E-02
  0.30001271941608870E+02  0.37674418386120447E-02  0.55493554467133431E-02
  0.44770723645725681E+02  0.72341167412235214E-02  0.72319602089943522E-02
  0.45544709414995822E+02  0.45057761902678906E-01  0.65789993050776055E-01
  0.48460264366959670E+02  0.10263246199052304E-01  0.15809702860494372E-01
  0.12675450552916706E+02  0.19624052646299659E-01  0.15343052293337010E-01
  0.16174890010253868E+02  0.16811914448171934E-01  0.10859097270609073E-01
  0.30037190802420241E+02  0.41419466897791050E-02  0.51588357729257578E-02
  0.44903775856563982E+02  0.75361228127765320E-02  0.69673102088798015E-02