  0.00000000000000000E+00  0.00000000000000000E+00  0.00000000000000000E+00
  0.00000000000000000E+00  0.00000000000000000E+00  0.00000000000000000E+00
  0.00000000000000000E+00  0.00000000000000000E+00  0.00000000000000000E+00
  0.48535018054055598E+02  0.23098241519159349E-01  0.27174552045397621E-01
  0.48535018054055612E+02  0.23098241527863616E-01  0.27174552048569337E-01
  0.48535018054079636E+02  0.22937394214047703E-01  0.27115940841576577E-01
  0.38324487420272302E+01  0.41109636105148218E-03  0.46251362192032986E-03
  0.38324493871153833E+01  0.47282382426859482E-03  0.53266444915497598E-03
  0.82580303336754124E+01  0.24026323961401004E-02  0.26393671589140322E-02
  0.48293530820623957E+02  0.32931740135711630E-01  0.41342304943132950E-01
  0.48293530871837952E+02  0.31897880897617970E-01  0.40298914618243892E-01
  0.51941099849072259E+02  0.61637464997471537E-02  0.52425166809015782E-02
  0.69989750982010630E+01  0.16030954255649651E-02  0.16995408457923735E-02
  0.69989754782315465E+01  0.16276331198436216E-02  0.17250898598096466E-02
  0.16168688269578574E+02  0.14820243657164597E-01  0.12480030502697055E-01
  0.47700948856589669E+02  0.36904875310023302E-01  0.48928672517813299E-01
  0.47700948912371800E+02  0.37324888902514050E-01  0.49641020972470112E-01
  0.52323487373047222E+02  0.10131796312655842E-01  0.85049093165594641E-02
  0.91147157948533408E+01  0.36480830199475019E-02  0.35890735173498092E-02
  0.91147164328113579E+01  0.35710539162514018E-02  0.35171975423021213E-02
  0.23522228155467712E+02  0.15524219979193288E-02  0.18337204485992262E-02
  0.47115154526721803E+02  0.25513971450040657E-01  0.29445385647555375E-01
  0.47115154650116679E+02  0.25711784725995557E-01  0.29277813404669020E-01
  0.51291613371283511E+02  0.42834315990454936E-02  0.37612028427213037E-02
  0.10274990032262874E+02  0.75221608444115476E-02  0.70211229691691636E-02
  0.10274990940559862E+02  0.69263590981237582E-02  0.64656421649655982E-02
  0.30130269146926167E+02  0.41971474450549591E-02  0.52026910350555311E-02
  0.46874499111284543E+02  0.46105283260621660E-01  0.50975055513667794E-01
  0.46874499310363070E+02  0.45786372665413029E-01  0.50647743666724233E-01
  0.48648901231483919E+02  0.18541055749817341E-01  0.22183486434984120E-01
  0.10866886786904884E+02  0.11123631419883153E-01  0.10199937903096975E-01
  0.10866887082858105E+02  0.11826103936251175E-01  0.10846717588876096E-01
  0.35663160436804333E+02  0.34965419618510872E-02  0.74288524464007624E-02
  0.45240844695612672E+02  0.45938571246839990E-01  0.47250225074860368E-01
  0.46955035744746766E+02  0.38010813821474053E-01  0.42693693682981690E-01
  0.46955035813261830E+02  0.36071658180218853E-01  0.40782125525763713E-01
  0.11071057503794982E+02  0.16973387487051645E-01  0.15615490558344118E-01
  0.11071058676296902E+02  0.16809002250489286E-01  0.15459333066602639E-01
  0.38860602648041436E+02  0.81015122498758318E-02  0.10997912607025637E-01
  0.42728620557214327E+02  0.17524379575882286E-01  0.84640194543903167E-02
  0.47041787648880003E+02  0.33213652688755278E-01  0.37740662727908159E-01
  0.47041787924844719E+02  0.33377885797890881E-01  0.38252176338444771E-01
  0.54742587906376352E+01  0.69117419555285236E-03  0.76059974606383944E-03
  0.54742596315590761E+01  0.70205353948365264E-03  0.77294432719983528E-03
  0.81910958308978490E+01  0.23351863796792845E-02  0.25949128099916141E-02
  0.48144907262343949E+02  0.44427794262796590E-01  0.57751740961476894E-01
  0.48144907357976088E+02  0.42873984186439305E-01  0.56897524896770850E-01
  0.52138460820021812E+02  0.11495405214659679E-01  0.96650875242498182E-02
  0.78135582927234335E+01  0.21935068501741698E-02  0.23011526532067295E-02
  0.79870015467450788E+01  0.22811522833688282E-02  0.23483189313311319E-02
  0.14302415359294114E+02  0.31411316610081036E-01  0.27545047534168494E-01
  0.47538771504406142E+02  0.28385502432363558E-01  0.34688398401094438E-01
  0.47726230372391008E+02  0.39019818517119602E-01  0.52792416741047919E-01
  0.52401176670264832E+02  0.84016195693511746E-02  0.69810296697309909E-02
  0.98175626539456555E+01  0.48640651988572994E-02  0.45733991060718420E-02
  0.10178389188566618E+02  0.68459733438180443E-02  0.65851146852071293E-02
  0.21124192175035923E+02  0.46276891572603106E-02  0.38049620584702693E-02
  0.46862594130226441E+02  0.44621322205529938E-01  0.49580292106641645E-01
  0.47294796814066942E+02  0.26026956659827297E-01  0.30328782046538542E-01
  0.51550258091386901E+02  0.51105858652455687E-02  0.44729279717581130E-02
  0.10871453935243718E+02  0.11489056465791478E-01  0.10224316005771242E-01
  0.11820145649004782E+02  0.14456507092638458E-01  0.12812458905281454E-01
  0.27534117611207083E+02  0.28013066256944554E-02  0.32872005748791487E-02
  0.46584110470124678E+02  0.38285477005720721E-01  0.43774542483152969E-01
  0.46793172873016303E+02  0.37425231929446197E-01  0.39179637086318927E-01
  0.49395169635011079E+02  0.71339397599211518E-02  0.80547449189841847E-02
  0.11475638133051261E+02  0.12896273581075054E-01  0.11290983558373689E-01
  0.12691506924801503E+02  0.19187984273883279E-01  0.16029614569562579E-01
  0.33146357773584583E+02  0.77041915776763226E-02  0.10536483660268854E-01
  0.45356030385928698E+02  0.90496466297463565E-01  0.92847486081516467E-01
  0.46696104074027531E+02  0.38070892566198153E-01  0.43397610969748118E-01
  0.47579855212068466E+02  0.26862205949044506E-01  0.39769263660102992E-01
  0.11759091855326231E+02  0.14241676256267747E-01  0.12477202028276700E-01
  0.13063196473130141E+02  0.20838528693113954E-01  0.17026609391373841E-01
  0.37149236590493111E+02  0.20099819963422341E-02  0.50376535981392764E-02
  0.42748253941092813E+02  0.15381746416775862E-01  0.87113871715308877E-02
  0.46806407863055540E+02  0.35489254717549920E-01  0.40299162184975916E-01
  0.47382687451449470E+02  0.25790280789295836E-01  0.35220334896768284E-01
  0.11643874506840287E+02  0.13793310624998964E-01  0.12170355130493627E-01
  0.13019926711264299E+02  0.20925277254532467E-01  0.17034495522004433E-01
  0.36156732547294503E+02  0.28196864493265435E-02  0.71419521819242153E-02
  0.43384270863629432E+02  0.11730364605192367E-01  0.76041707727377266E-02
  0.46735062891975389E+02  0.37620771084954319E-01  0.42395536434874308E-01
  0.47491790850054386E+02  0.26227900938437770E-01  0.37067780568424497E-01
  0.11134431471780450E+02  0.10767239266908665E-01  0.97198205902760074E-02
  0.12641302174893553E+02  0.18889538843876310E-01  0.15508320496204667E-01
  0.31412178374711740E+02  0.53299063783288419E-02  0.66849058077988622E-02
  0.45756787167665408E+02  0.45985661393010066E-01  0.46960846503984806E-01
  0.46688848677188950E+02  0.38572458741419791E-01  0.43021497383957018E-01
  0.48107160082757488E+02  0.42456020166104731E-01  0.67609597741677838E-01
  0.10088791140048249E+02  0.61014682259247499E-02  0.58219964262301678E-02
  0.11953424108779963E+02  0.14691285985409898E-01  0.12605858925403493E-01
  0.25421850472897361E+02  0.20729356565138139E-02  0.24055923287294558E-02
  0.46753470339281066E+02  0.38440232971046810E-01  0.41177487715258559E-01
  0.46921305171877258E+02  0.37878983679018985E-01  0.41659534165845058E-01
  0.50089454803682749E+02  0.52041431207265456E-02  0.51297582237784072E-02
  0.81550315925130672E+01  0.23720663100321132E-02  0.24593529403148817E-02
  0.10581468457514941E+02  0.74409809054220939E-02  0.69599336587891098E-02
  0.18830424380988095E+02  0.11135739917963574E-01  0.90042796340735441E-02
  0.47414535473884570E+02  0.28138744859544217E-01  0.33469985509382627E-01
  0.47429217598610009E+02  0.28435122832955680E-01  0.33132930149092556E-01
  0.51714608199776201E+02  0.56775568502536846E-02  0.49688319938917041E-02
  0.54809716941640430E+01  0.69280496509499675E-03  0.76245482200391066E-03
  0.78965779855937699E+01  0.22301173864614876E-02  0.23423259206367085E-02
  0.12436554751104849E+02  0.15432119633748197E-01  0.15158527955682266E-01
  0.47976741846102179E+02  0.69054443655291384E-01  0.97148417867818193E-01
  0.47980622139855662E+02  0.71226388062321733E-01  0.97496374986790382E-01
  0.52162901018248299E+02  0.15460572964231208E-01  0.13109915276472081E-01
  0.98279070857552444E+01  0.49072366039606902E-02  0.46000580180597878E-02
  0.98279088372403685E+01  0.49343771022551776E-02  0.46224356530092867E-02
  0.16189422902010463E+02  0.14353821989165339E-01  0.12471388175970807E-01
  0.46919363714692267E+02  0.37539154324457348E-01  0.42232797209040954E-01
  0.46919364081581563E+02  0.37592617135110550E-01  0.42364360143070864E-01
  0.52776881749103076E+02  0.58997059138437072E-02  0.46687713270176833E-02
  0.11242132235326547E+02  0.11440183853917249E-01  0.96873905201448826E-02
  0.11935391035284534E+02  0.14849531217305621E-01  0.12445777699809972E-01
  0.20750381522546654E+02  0.13896553991980401E-01  0.10801734377436454E-01
  0.46222979003117040E+02  0.35548411196914105E-01  0.43511099360454615E-01
  0.46439535965182124E+02  0.39070084259179003E-01  0.45792528418421109E-01
  0.52037064041203038E+02  0.59350126459237094E-02  0.49010321451758154E-02
  0.12093724520606637E+02  0.15539144549305070E-01  0.12370856792472589E-01
  0.14389102849050570E+02  0.40925061773130107E-01  0.28165452301692810E-01
  0.25503147305251559E+02  0.20633795359799472E-02  0.24894180303057438E-02
  0.45958397300893829E+02  0.43954578931228394E-01  0.56215999139408848E-01
  0.46138636739901251E+02  0.38660425126460778E-01  0.45068534068728142E-01
  0.50033262119470329E+02  0.52336745968437331E-02  0.51353219361860887E-02
  0.12675450552916677E+02  0.19624052553374790E-01  0.15343052223285494E-01
  0.16174890010253854E+02  0.16811914238059160E-01  0.10859097153940031E-01
  0.30037190802420245E+02  0.41419466677283029E-02  0.51588357447512438E-02
  0.44903775856563996E+02  0.13749339050294639E-01  0.12089315798412678E-01
  0.46115493200934445E+02  0.38571704984076485E-01  0.48865491075790496E-01
  0.48300888585750208E+02  0.27588720587551435E-01  0.45757142941806793E-01
  0.13021848395522737E+02  0.21113931292391683E-01  0.16507170789530189E-01
  0.16999387247108029E+02  0.15746613635898996E-01  0.95872894501277117E-02
  0.33823650332038852E+02  0.12256901314556945E-01  0.17567090988083251E-01
  0.42560361338113339E+02  0.11209769008106276E-01  0.69326733794927006E-02
  0.46238407385015691E+02  0.35140385975009250E-01  0.43514578632247322E-01
  0.47913781550918081E+02  0.46863584921905267E-01  0.90682847219535220E-01
  0.12985938601420477E+02  0.21017784911216832E-01  0.16570648850501437E-01
  0.17096780928957688E+02  0.15732879164721211E-01  0.94652895694364372E-02
  0.34718168946357238E+02  0.58201729191103297E-02  0.94592546792259102E-02
  0.41587441858812710E+02  0.13319009539442726E-01  0.81102238979428431E-02
  0.46143994032122372E+02  0.37715988732272679E-01  0.46699240874153204E-01
  0.48079262675264360E+02  0.43924115745358802E-01  0.82132905877964194E-01
  0.12595324678545081E+02  0.18573584485979056E-01  0.15114659145695349E-01
  0.16789613894288781E+02  0.15978598665948317E-01  0.95807038987207761E-02
  0.31465624440976107E+02  0.55177016997524468E-02  0.66525130563447263E-02
  0.43135630189629161E+02  0.11466223388433085E-01  0.85638853514329732E-02
  0.46109586471749729E+02  0.39619201388552856E-01  0.48398329586496071E-01
  0.48506681895644824E+02  0.18221975509596249E-01  0.31019454532304543E-01
  0.11789090140400516E+02  0.14329836455315362E-01  0.12522825563144692E-01
  0.16238521777593320E+02  0.16648287561897176E-01  0.10441850125150655E-01
  0.26657421284402091E+02  0.25261195677715813E-02  0.29023242339855492E-02
  0.45108290216034725E+02  0.18480434302672936E-01  0.19590771735782622E-01
  0.46392183384612458E+02  0.38124585562833900E-01  0.43810442826115202E-01
  0.49224866978444943E+02  0.77557296057028701E-02  0.10886080841059563E-01
  0.10241660695658366E+02  0.68855279724861712E-02  0.65732448821900942E-02
  0.14507078039720721E+02  0.23119730414606885E-01  0.16436022928322500E-01
  0.22061645231755236E+02  0.12798542023262248E-02  0.14872566272292401E-02
  0.46774738100829886E+02  0.38013187131843665E-01  0.39932633933491342E-01
  0.46916284394836097E+02  0.38527557117329567E-01  0.42137509836504050E-01
  0.50305760797671972E+02  0.51490330190274826E-02  0.53349063884874414E-02
  0.12314726426021299E+02  0.16906509471428455E-01  0.12785846328258167E-01
  0.12314727152732086E+02  0.16508077379814839E-01  0.12472952067430756E-01
  0.23790232727874617E+02  0.15372438441093126E-02  0.19627759987506633E-02
  0.45566193005984530E+02  0.67078673927497931E-01  0.94850874142229022E-01
  0.45566193202402580E+02  0.67008487729340011E-01  0.94780853606065307E-01
  0.51913922016789954E+02  0.66067109191632507E-02  0.52152969510025219E-02
  0.12968300280031052E+02  0.22062588092640719E-01  0.15620648192139581E-01
  0.14045320527656450E+02  0.32985520583198064E-01  0.21153021952172085E-01
  0.27255534895847060E+02  0.25095051681336324E-02  0.33675786835883409E-02
  0.45350339588486094E+02  0.73286041475099969E-01  0.11072641805173555E+00
  0.45355390291086529E+02  0.75541477382074257E-01  0.11089817281106563E+00
  0.50367863074219557E+02  0.57164055417047851E-02  0.48753714016311171E-02
  0.13498982970058416E+02  0.25225041888417166E-01  0.17332546030939151E-01
  0.16896685938516711E+02  0.16734670376513945E-01  0.89636915994098093E-02
  0.30001271941608856E+02  0.37674418168734507E-02  0.55493554144417610E-02
  0.44770723645725681E+02  0.12176703722569435E-01  0.11547339281326053E-01
  0.45544709414995808E+02  0.73701236746459800E-01  0.10801730686013158E+00
  0.48460264366959677E+02  0.19468647587572933E-01  0.28326682605115217E-01
  0.13859604736626313E+02  0.32035811963712857E-01  0.21826411049998037E-01
  0.19237278243811875E+02  0.14347430347618373E-01  0.71075860009042315E-02
  0.32351421196323976E+02  0.57889072602116363E-02  0.95284215285260879E-02
  0.42548978541513712E+02  0.11573356313530073E-01  0.66147773137372121E-02
  0.45674728909944193E+02  0.47229213304338782E-01  0.66005922807093956E-01
  0.47963025459448161E+02  0.53479109116973893E-01  0.11207906923698710E+00
  0.13857142388967834E+02  0.31909819614824447E-01  0.21882132722965447E-01
  0.20102731247590814E+02  0.17940789298464901E-01  0.82976039223341611E-02
  0.33836557569716064E+02  0.11238473046798238E-01  0.18724646935629356E-01
  0.40419456295243045E+02  0.10315552711355961E-01  0.55456531673041360E-02
  0.45541621028745304E+02  0.75533633659526908E-01  0.10817075841192587E+00
  0.48207054890669568E+02  0.32007053921183838E-01  0.64903002806678961E-01
  0.13560481211509838E+02  0.25661400923665340E-01  0.18302527069091353E-01
  0.19881229167426476E+02  0.17438442960925716E-01  0.80475965406201500E-02
  0.32073862556365505E+02  0.61557981152761685E-02  0.81713205468291108E-02
  0.40879624881332184E+02  0.11871607172389239E-01  0.78454679870349729E-02
  0.45473317990126141E+02  0.82462089138655159E-01  0.11774196949738612E+00
  0.48600630997966526E+02  0.15646129445663917E-01  0.29807094684261095E-01
  0.12983715828954741E+02  0.21103776919179536E-01  0.16492422025691650E-01
  0.18971836939805751E+02  0.13759726007552766E-01  0.70676583256529327E-02
  0.28762466423338910E+02  0.34326787783402349E-02  0.41152194475366412E-02
  0.42748298799928847E+02  0.13514945551941953E-01  0.10024312297940152E-01
  0.45791939393112074E+02  0.40447126947831133E-01  0.51285724944234716E-01
  0.48978373237939735E+02  0.94087586236582064E-02  0.15465505061045237E-01
  0.13467297243751522E+02  0.25479239935429325E-01  0.16596743562837902E-01
  0.13467298450523000E+02  0.25353738721587214E-01  0.16564501079378974E-01
  0.30681251044990400E+02  0.40603628115990879E-02  0.62019211946932320E-02
  0.45138279707827436E+02  0.23274520019725499E-01  0.34761680782658656E-01
  0.45138280067858268E+02  0.22338687192226741E-01  0.33775678814085934E-01
  0.49530251562532229E+02  0.68214604844972103E-02  0.56123196814444895E-02
  0.13896400939617342E+02  0.33415096517351743E-01  0.21218985451603275E-01
  0.15002775802752595E+02  0.24345376426891961E-01  0.14121656444588456E-01
  0.33280724402674139E+02  0.68756958337466310E-02  0.13022488250262136E-01
  0.45031014241933320E+02  0.12567522887761598E-01  0.13857963944649932E-01
  0.45300757691101808E+02  0.60129100028895412E-01  0.94861287264480704E-01
  0.47771157572543807E+02  0.46099597133671101E-01  0.54901720371176403E-01
  0.14206006563580519E+02  0.40942002531139908E-01  0.25646093031354709E-01
  0.17841375981121995E+02  0.15621335408774287E-01  0.77573667601725836E-02
  0.34740691135005726E+02  0.41480663416934987E-02  0.11769209164535119E-01
  0.43015864096464398E+02  0.14407125685890520E-01  0.65701629714978024E-02
  0.45420073536942709E+02  0.87954023288855251E-01  0.13742410366534918E+00
  0.47271478956675388E+02  0.21342243913223792E-01  0.34712976520991243E-01
  0.14210017313202142E+02  0.40819318331492230E-01  0.25680665914972131E-01
  0.20186293823012853E+02  0.18690186422929526E-01  0.78462306138148887E-02
  0.35643190251155247E+02  0.22205214452057777E-02  0.10232552841806941E-01
  0.39882734569809166E+02  0.10121641183330381E-01  0.30020349028485717E-02
  0.45280968849792934E+02  0.54687653947097500E-01  0.84550610511609045E-01
  0.47791223887788853E+02  0.34576805925638533E-01  0.75720458141396052E-01
  0.13984797399401495E+02  0.32720090729383033E-01  0.21433053196047634E-01
  0.20879765519617479E+02  0.21233968331191885E-01  0.82508068292236579E-02
  0.34511841927126596E+02  0.52536265579434579E-02  0.11842414404650010E-01
  0.39134564508569888E+02  0.92517377755543476E-02  0.48479382881971679E-02
  0.45177730758903209E+02  0.27032423053425042E-01  0.39225277949878817E-01
  0.48308175511683714E+02  0.23724250641048657E-01  0.48911075340799706E-01
  0.14177947299610388E+02  0.41687418546780153E-01  0.25546165383298059E-01
  0.14177948417950702E+02  0.40667364401539445E-01  0.24933438313427106E-01
  0.36472826475779755E+02  0.18412164735103779E-02  0.85650318838813803E-02
  0.45386937331703230E+02  0.78311163064423220E-01  0.12482353618027488E+00
  0.45386937681032677E+02  0.78614778225176138E-01  0.12525907585136578E+00
  0.46179452937403944E+02  0.50137140030778640E-01  0.29173083301735472E-01
  0.14375074760437727E+02  0.43901834984646344E-01  0.26655096680735665E-01
  0.15493398178170841E+02  0.22526986643036446E-01  0.12876385045351943E-01
  0.38205559201117815E+02  0.23457738029863261E-02  0.68387127829858362E-02
  0.43481813298653790E+02  0.16269064478670742E-01  0.38013894063138533E-02
  0.45477694863350116E+02  0.78059447584049937E-01  0.12257555147097611E+00
  0.46120717902889268E+02  0.35101330314300218E-01  0.51157357280270904E-01
  0.14371863447722731E+02  0.43998090750985895E-01  0.26797417467981581E-01
  0.18074728855073293E+02  0.15215389750652038E-01  0.75075817799793287E-02
  0.38070421163412846E+02  0.24915765299408666E-03  0.82220188809871350E-02
  0.40732612386564682E+02  0.21708922860055220E-01  0.44483658247110758E-03
  0.45369509358805111E+02  0.74462109543767752E-01  0.11746947685797203E+00
  0.46975722513097750E+02  0.28806512883407367E-01  0.47132561321601693E-01
  0.14446146462356891E+02  0.35437697020568266E-01  0.21607888685957997E-01
  0.14446147122887092E+02  0.35883589604917575E-01  0.21858708396123066E-01
  0.40093010048068102E+02  0.22920062651498143E-15  0.19522598924527838E-01
  0.43276230664577277E+02  0.32178222060254870E-01  0.26531223244824861E-15
  0.45558795786956779E+02  0.66759521321278242E-01  0.10310614697187691E+00
  0.45558795996385889E+02  0.66784784490010352E-01  0.10309952683487633E+00
  0.93388936579896349E+01  0.38553305016522728E-02  0.37717310722405364E-02
  0.11457362508687750E+02  0.12800934529749206E-01  0.11334716315895126E-01
  0.18257801782049345E+02  0.11921767890291857E-01  0.97850983581618256E-02
  0.46979531748255610E+02  0.34881741557260447E-01  0.39078780991617719E-01
  0.47216485941488379E+02  0.24766856977644740E-01  0.29264118651367400E-01
  0.51946416494812908E+02  0.64403420259875480E-02  0.55312195599660843E-02
  0.11094212035236525E+02  0.14636752920981136E-01  0.13183402929248522E-01
  0.13725423199728350E+02  0.28126252449190134E-01  0.20863800355921277E-01
  0.23343496595433169E+02  0.15433592240455809E-02  0.18130774688261706E-02
  0.46243267656813515E+02  0.36013638274402258E-01  0.42143523787011333E-01
  0.46887271881994501E+02  0.44784786849867135E-01  0.48677244914414421E-01
  0.50399111527654853E+02  0.52507089116271563E-02  0.52991210587294228E-02
  0.12161108760499628E+02  0.15133457288161019E-01  0.12598706430132766E-01
  0.14988562242347989E+02  0.23548483362523211E-01  0.16040703823203335E-01
  0.28647107169544114E+02  0.33967750688976041E-02  0.39705852115719410E-02
  0.45267416477090094E+02  0.58012376117855174E-01  0.67317615142700682E-01
  0.46483889940916853E+02  0.40064487280295678E-01  0.44147657112958885E-01
  0.48708953540253944E+02  0.13890147750140457E-01  0.21600695616180297E-01
  0.12714077329034035E+02  0.19723038189327146E-01  0.15887641757924547E-01
  0.15665771173564368E+02  0.19985767983241538E-01  0.13412189185711231E-01
  0.33299955202097557E+02  0.83213953588616978E-02  0.11228777771555535E-01
  0.43276364716220506E+02  0.17382013712021419E-01  0.81104211297721527E-02
  0.46399756965883903E+02  0.38676540969125130E-01  0.44828307365892335E-01
  0.47949825639064308E+02  0.55029055240379071E-01  0.10499144949583823E+00
  0.12909248165612025E+02  0.21003097663690618E-01  0.16785028715275912E-01
  0.15898353256735662E+02  0.17976073585960012E-01  0.12082396956101452E-01
  0.35646997917773021E+02  0.36429510374037096E-02  0.74155574106444461E-02
  0.41797464170447718E+02  0.13021462985911317E-01  0.75623075981866572E-02
  0.46436138760705298E+02  0.38947216426319944E-01  0.45293044421808509E-01
  0.47794367776940632E+02  0.39017199224912563E-01  0.72417993123071719E-01
  0.12565613890580941E+02  0.18656498702052861E-01  0.14454868546185842E-01
  0.13792857705964753E+02  0.30918136447914517E-01  0.21186972061597618E-01
  0.24203252334576085E+02  0.16043701758746449E-02  0.20075396751489606E-02
  0.45543355919229157E+02  0.76309901538518701E-01  0.10572044786209656E+00
  0.46143577127543907E+02  0.37295857050656751E-01  0.46504727634489831E-01
  0.50834967643190829E+02  0.43675395269305263E-02  0.38963273122905478E-02
  0.13533692948501244E+02  0.25573617075817373E-01  0.17982795254207293E-01
  0.16151624169952179E+02  0.17409543098714356E-01  0.10449398401228769E-01
  0.27633264804822996E+02  0.26925845153400918E-02  0.34733058986801046E-02
  0.44840721145461444E+02  0.12382129083736527E-01  0.13017610567161438E-01
  0.46089087037073362E+02  0.40941773909098714E-01  0.49007894539199084E-01
  0.48997773959682583E+02  0.10333358586494822E-01  0.14091298145710876E-01
  0.14053097451798129E+02  0.32286930281732254E-01  0.21807044802138870E-01
  0.18125124028862697E+02  0.14434626473107379E-01  0.80871580926226028E-02
  0.30960615542288842E+02  0.45594760592261941E-02  0.62536441393279112E-02
  0.43176854669407376E+02  0.12648457808410172E-01  0.82296712179292450E-02
  0.45975771617830084E+02  0.44890867032730229E-01  0.55788227710281975E-01
  0.48097279159364106E+02  0.38609633749422348E-01  0.77115733397722000E-01
  0.14271386934753540E+02  0.36633140503365448E-01  0.24422359732627890E-01
  0.18998046927079745E+02  0.13332472246463270E-01  0.73868194309660070E-02
  0.33549690510560154E+02  0.97334536131785127E-02  0.14611152856717357E-01
  0.41106284801607949E+02  0.13429316070801108E-01  0.76373812983001124E-02
  0.45905576091664948E+02  0.43548836846512007E-01  0.55449629125458873E-01
  0.48024099284628541E+02  0.55213181909828019E-01  0.11875700820390768E+00
  0.14130738966177661E+02  0.35607192848206168E-01  0.24078052532968998E-01
  0.18917525531920294E+02  0.13362966776284802E-01  0.73693813808990028E-02
  0.32941580834490075E+02  0.72623795646846387E-02  0.98243467056696836E-02
  0.41156011100017317E+02  0.12897114617621696E-01  0.79666443437193344E-02
  0.45826056922695130E+02  0.40622795842939791E-01  0.51998752684329561E-01
  0.48225840585322963E+02  0.30512595738120721E-01  0.62219756503619598E-01
  0.13656679337124460E+02  0.27091541044357598E-01  0.19541857569480910E-01
  0.18223832041667993E+02  0.14402797077872821E-01  0.79140202947561369E-02
  0.29560859607392317E+02  0.39468454574979493E-02  0.48315276281779545E-02
  0.42959129369024176E+02  0.11317569822943650E-01  0.85804857614000460E-02
  0.45954697095499412E+02  0.45203261560232910E-01  0.55158489245744007E-01
  0.48609809975947954E+02  0.15637315329594163E-01  0.29101919786759849E-01
  0.12677722295014137E+02  0.19330414543144481E-01  0.15639964560844443E-01
  0.16739427097218513E+02  0.16231715703148804E-01  0.93947771824496318E-02
  0.25962410113700980E+02  0.22393828842026753E-02  0.26790536555646610E-02
  0.44851405767751629E+02  0.12361627951139962E-01  0.12772815220045943E-01
  0.46419091113119713E+02  0.39479130863969696E-01  0.43397668300335375E-01
  0.49234632169593397E+02  0.76821396345876074E-02  0.10818837561031948E-01
  0.14264218755774118E+02  0.38624278937974495E-01  0.23590240141082880E-01
  0.14883148037090333E+02  0.24375776253442956E-01  0.14715434006403492E-01
  0.30119043143792474E+02  0.37757335134465850E-02  0.56493639889554992E-02
  0.44838278107447380E+02  0.11892854416563677E-01  0.13463992788327920E-01
  0.45567752098007091E+02  0.66396849645312575E-01  0.93879808281318519E-01
  0.48806343689469202E+02  0.12922857166681123E-01  0.15051681201436126E-01
  0.14875368988380981E+02  0.24674286095542071E-01  0.14785729206532183E-01
  0.17513999179463909E+02  0.15971016900057741E-01  0.83098319664504650E-02
  0.32168249404362058E+02  0.53897178089964753E-02  0.94747664296775547E-02
  0.43527073875976974E+02  0.11826911091942735E-01  0.70926239651645561E-02
  0.45623495676909982E+02  0.53536797990663861E-01  0.72958367714852770E-01
  0.47692717470868196E+02  0.29643580970288866E-01  0.56900793703398775E-01
  0.15087256672325216E+02  0.24843525594904832E-01  0.14869780661781460E-01
  0.19908903077106416E+02  0.17607319339911127E-01  0.80329910506133327E-02
  0.33770786547999421E+02  0.98951866390504534E-02  0.20716036505145512E-01
  0.40849841579280273E+02  0.14215038235083506E-01  0.63119214269713722E-02
  0.45506246507441958E+02  0.80324222133943177E-01  0.11674969926970145E+00
  0.47802285882422282E+02  0.34796893421654443E-01  0.79482319024603135E-01
  0.14973024431945712E+02  0.24783814162890778E-01  0.15017020041292538E-01
  0.20697237470384774E+02  0.18891062354399975E-01  0.82900954795084771E-02
  0.34081622368829223E+02  0.74171294814203417E-02  0.14576588744731543E-01
  0.39346271653778039E+02  0.92640504902927225E-02  0.48592005808432938E-02
  0.45366768681583991E+02  0.76572257363845458E-01  0.11369566792683920E+00
  0.48142148466029532E+02  0.32832834254742607E-01  0.72938536656474151E-01
  0.14557923830727717E+02  0.23231312926547891E-01  0.14954715131437868E-01
  0.20072359109427051E+02  0.18032122007001543E-01  0.82142583428858572E-02
  0.31678670930679736E+02  0.54347445575623774E-02  0.75564699676388281E-02
  0.40795841395764953E+02  0.11851764933872525E-01  0.73969700181389314E-02
  0.45482900944889977E+02  0.82336296782827445E-01  0.11727530956959419E+00
  0.48436409377794909E+02  0.16659902857991925E-01  0.33719048096560955E-01
  0.15074689612961494E+02  0.25003915300934050E-01  0.14147894392096723E-01
  0.15560004873193389E+02  0.21974021263962227E-01  0.12971486855725087E-01
  0.35451104573694337E+02  0.29004186948314958E-02  0.93455865939962423E-02
  0.43987318149977177E+02  0.97103478933514044E-02  0.50051360934140910E-02
  0.45507415149699590E+02  0.80959572313111239E-01  0.11566740834824779E+00
  0.46767800844726231E+02  0.33070427421339921E-01  0.45897137859654651E-01
  0.15401924064785110E+02  0.23890583649351566E-01  0.13622761926039765E-01
  0.18133674921006989E+02  0.14901188238417930E-01  0.76111321589689548E-02
  0.36462360670513625E+02  0.13160873472739115E-02  0.98667640167400851E-02
  0.41130005712432556E+02  0.18619670200707285E-01  0.42212382867990415E-02
  0.45436624939635863E+02  0.87858118278939093E-01  0.13153164763643357E+00
  0.47118192337875392E+02  0.19625410243468356E-01  0.36048935406433953E-01
  0.15333078974657196E+02  0.24336616659480576E-01  0.14036784143654482E-01
  0.20359704293088953E+02  0.18902477318396123E-01  0.81595612326741986E-02
  0.36388092525926830E+02  0.64595399337411073E-03  0.11683778971357263E-01
  0.38553786529508365E+02  0.12264810633518987E-01  0.12543115016896487E-02
  0.45280223298167584E+02  0.54927888897699666E-01  0.83693048737216572E-01
  0.47735879888372914E+02  0.29745660745299163E-01  0.68600207900125901E-01
  0.15289424093157869E+02  0.24365699429734815E-01  0.13762720712952956E-01
  0.15842993838755572E+02  0.19701385421089037E-01  0.11492815464892496E-01
  0.38863618601438311E+02  0.59278922559839742E-03  0.17592419570437196E-01
  0.41863623627145891E+02  0.22055143505109901E-01  0.39925277672754497E-03
  0.45542148359970213E+02  0.75458649279875722E-01  0.10759016075181338E+00
  0.46331395814717624E+02  0.29940655389361918E-01  0.50698267539659836E-01
  0.15185387137146558E+02  0.23866516179315456E-01  0.14250858264538464E-01
  0.17799087045729173E+02  0.15249107186951529E-01  0.82780567960309259E-02
  0.29869762450420748E+02  0.38282404910076162E-02  0.53736310924423838E-02
  0.43205974699526834E+02  0.12810490981401849E-01  0.85545561834964087E-02
  0.45890953890659937E+02  0.44568591103919232E-01  0.53839366907712911E-01
  0.48186019508323390E+02  0.32899050564861768E-01  0.67051458421531179E-01
  0.15926329756424535E+02  0.19385148080097475E-01  0.10933434317912553E-01
  0.19569103306515768E+02  0.15111695759770819E-01  0.77463573046604121E-02
  0.32235173046054790E+02  0.58370474613817025E-02  0.91573689230252508E-02
  0.40978698628192021E+02  0.13815112313425956E-01  0.72892742105810380E-02