  0.00000000000000000E+00  0.00000000000000000E+00  0.00000000000000000E+00
  0.00000000000000000E+00  0.00000000000000000E+00  0.00000000000000000E+00
  0.00000000000000000E+00  0.00000000000000000E+00  0.00000000000000000E+00
  0.48535018054055598E+02  0.13347096410553566E+00  0.16900389258886492E+00
  0.48535018054055598E+02  0.13347096410553566E+00  0.16900389258886492E+00
  0.48535018054079629E+02  0.13347096410501727E+00  0.16900389258833104E+00
  0.38324487420271769E+01  0.27825013411685909E-02  0.29486586152501692E-02
  0.38324493871153362E+01  0.27825020599019637E-02  0.29486593710387498E-02
  0.82580303336754159E+01  0.14925850505774626E-01  0.15144762344622999E-01
  0.48293530820623950E+02  0.18951278289146523E+00  0.25339649986461504E+00
  0.48293530871837937E+02  0.18951275165125189E+00  0.25339645405480410E+00
  0.51941099849072259E+02  0.36536890447137649E-01  0.33673821630670731E-01
  0.69989750982011270E+01  0.98556427760777034E-02  0.10143757215918533E-01
  0.69989754782316185E+01  0.98556446702869737E-02  0.10143759129848839E-01
  0.16168688269578588E+02  0.92068336450458935E-01  0.71121530919270440E-01
  0.47700948856589662E+02  0.21914884487803779E+00  0.29958406710111374E+00
  0.47700948912371793E+02  0.21914887516437584E+00  0.29958411821323838E+00
  0.52323487373047215E+02  0.60419746607552685E-01  0.55246225476501071E-01
  0.91147157948533533E+01  0.21611995504130652E-01  0.21475250781128528E-01
  0.91147164328113668E+01  0.21612000555175440E-01  0.21475255490546720E-01
  0.23522228155467712E+02  0.97821273782699083E-02  0.10683974273873893E-01
  0.47115154526721803E+02  0.15456359443874068E+00  0.17520740902524981E+00
  0.47115154650116693E+02  0.15456357868789283E+00  0.17520739628324491E+00
  0.51291613371283511E+02  0.24795908226173651E-01  0.23343453233230831E-01
  0.10274990032262876E+02  0.43047320822184182E-01  0.41596879136318765E-01
  0.10274990940559883E+02  0.43047335657224829E-01  0.41596892539868251E-01
  0.30130269146926153E+02  0.26104681567623161E-01  0.30027716686718820E-01
  0.46874499111284543E+02  0.28028713413994555E+00  0.29944006351755470E+00
  0.46874499310363063E+02  0.28028713097008295E+00  0.29944006353896585E+00
  0.48648901231483933E+02  0.10667525934228453E+00  0.13816940338884842E+00
  0.10866886786904860E+02  0.68076504924458270E-01  0.64863254265597386E-01
  0.10866887082858085E+02  0.68076515246977568E-01  0.64863263707019642E-01
  0.35663160436804333E+02  0.22442593184936296E-01  0.41354533665482994E-01
  0.45240844695612651E+02  0.25872216541861087E+00  0.30807045019977197E+00
  0.46955035744746766E+02  0.22805525661325368E+00  0.24714328945913577E+00
  0.46955035813261837E+02  0.22805523666741109E+00  0.24714327043946169E+00
  0.11071057503794989E+02  0.99454516169573792E-01  0.94793793015240976E-01
  0.11071058676296936E+02  0.99454516287952738E-01  0.94793790870945027E-01
  0.38860602648041429E+02  0.61184793567039313E-01  0.54501937347839660E-01
  0.42728620557214334E+02  0.88699146058789965E-01  0.65131260408983593E-01
  0.47041787648880003E+02  0.20326774530045488E+00  0.22361663770961293E+00
  0.47041787924844719E+02  0.20326765254743556E+00  0.22361654905234868E+00
  0.54742587906376015E+01  0.42838761175078878E-02  0.44913907844818090E-02
  0.54742596315590806E+01  0.42838773335397802E-02  0.44913920225839151E-02
  0.81910958308978490E+01  0.14668671959891374E-01  0.14901486705074542E-01
  0.48144907262343956E+02  0.25568647697546520E+00  0.35252194600470199E+00
  0.48144907357976074E+02  0.25568645020249320E+00  0.35252190668631272E+00
  0.52138460820021812E+02  0.66013250070119170E-01  0.60712069811062218E-01
  0.78135582927234273E+01  0.13260892019532200E-01  0.13541296128099527E-01
  0.79870015467450326E+01  0.13915865553884322E-01  0.14179918874433092E-01
  0.14302415359294104E+02  0.19812684766682784E+00  0.15885580885109996E+00
  0.47538771504406135E+02  0.17064477346267795E+00  0.21117419710708105E+00
  0.47726230372391008E+02  0.23300361900420372E+00  0.32278275019898967E+00
  0.52401176670264832E+02  0.47492958908379089E-01  0.43332127486711482E-01
  0.98175626539456271E+01  0.28693369240233874E-01  0.28054616234110246E-01
  0.10178389188566584E+02  0.40377419219048041E-01  0.39110096202327901E-01
  0.21124192175035930E+02  0.27793314728714685E-01  0.21449528150181123E-01
  0.46862594130226448E+02  0.27268129274859898E+00  0.29138001286708659E+00
  0.47294796814066956E+02  0.15692349024113733E+00  0.18333560126744869E+00
  0.51550258091386908E+02  0.29966525262089080E-01  0.27926811157053911E-01
  0.10871453935243743E+02  0.68221050179563619E-01  0.64994429983042723E-01
  0.11820145649004782E+02  0.84590926031501937E-01  0.78344026457847105E-01
  0.27534117611207076E+02  0.17232471254964982E-01  0.19141743318016879E-01
  0.46584110470124656E+02  0.23769083982300779E+00  0.25395852594133472E+00
  0.46793172873016303E+02  0.22144031286341001E+00  0.23758396098427476E+00
  0.49395169635011079E+02  0.43235981619631540E-01  0.48037447718336838E-01
  0.11475638133051239E+02  0.75526841924878740E-01  0.70697012940604639E-01
  0.12691506924801500E+02  0.11137797409121382E+00  0.99396244476369869E-01
  0.33146357773584583E+02  0.48536582825738597E-01  0.61268351970767361E-01
  0.45356030385928712E+02  0.50096797955583683E+00  0.60664322824507289E+00
  0.46696104074027538E+02  0.23840160029412466E+00  0.25471203362618683E+00
  0.47579855212068473E+02  0.17443881403412587E+00  0.22042888732444171E+00
  0.11759091855326222E+02  0.83990082253422207E-01  0.77965775023671302E-01
  0.13063196473130128E+02  0.12048392272364659E+00  0.10570870019968853E+00
  0.37149236590493118E+02  0.13291021108226463E-01  0.27450796348376025E-01
  0.42748253941092827E+02  0.82815167454523136E-01  0.61406191415158851E-01
  0.46806407863055576E+02  0.21948908300851674E+00  0.23566607834174361E+00
  0.47382687451449463E+02  0.16680745137903058E+00  0.19703181296230862E+00
  0.11643874506840261E+02  0.81692557616661846E-01  0.76120604430653119E-01
  0.13019926711264283E+02  0.12057837006921811E+00  0.10604577313601070E+00
  0.36156732547294503E+02  0.18142814910821772E-01  0.40367494201892090E-01
  0.43384270863629418E+02  0.66149490503653860E-01  0.51406993053915211E-01
  0.46735062891975396E+02  0.23372992494709754E+00  0.25000465578302616E+00
  0.47491790850054386E+02  0.16984689125737432E+00  0.20624587566765612E+00
  0.11134431471780452E+02  0.63111674659927966E-01  0.59592112303060538E-01
  0.12641302174893605E+02  0.10869116832192777E+00  0.97209161342928868E-01
  0.31412178374711736E+02  0.32753975436265521E-01  0.39056360037398631E-01
  0.45756787167665401E+02  0.26303942534117836E+00  0.29742724582827612E+00
  0.46688848677188979E+02  0.23882554499968689E+00  0.25513252192228442E+00
  0.48107160082757474E+02  0.27327298322396321E+00  0.37846858487870594E+00
  0.10088791140048249E+02  0.36848477356582414E-01  0.35773781954720169E-01
  0.11953424108779977E+02  0.85180648143330470E-01  0.78450249824663212E-01
  0.25421850472897368E+02  0.12800162386154333E-01  0.14034954202093785E-01
  0.46753470339281073E+02  0.23025365708473672E+00  0.24648175416333085E+00
  0.46921305171877258E+02  0.22935933346928103E+00  0.24766738412831865E+00
  0.50089454803682749E+02  0.31771507012342014E-01  0.31386422622965836E-01
  0.81550315925130548E+01  0.14532213202005758E-01  0.14771690150739399E-01
  0.10581468457514850E+02  0.44198576288621630E-01  0.42321656582070509E-01
  0.18830424380988109E+02  0.69769890910369350E-01  0.52234333068682907E-01
  0.47414535473884570E+02  0.16886048087898228E+00  0.20065732504412820E+00
  0.47429217598609981E+02  0.16939959024972071E+00  0.20195198772561565E+00
  0.51714608199776208E+02  0.33652651767329650E-01  0.31200909280390057E-01
  0.54809716941640430E+01  0.42936045391557083E-02  0.45012950230401035E-02
  0.78965779855936811E+01  0.13576991767301318E-01  0.13850486644477881E-01
  0.12436554751104818E+02  0.97464942320113324E-01  0.87918974441688114E-01
  0.47976741846102172E+02  0.40780338931190230E+00  0.59281389460075584E+00
  0.47980622139855683E+02  0.41105369348004844E+00  0.59704975752062683E+00
  0.52162901018248299E+02  0.88856316447826780E-01  0.81747751263193502E-01
  0.98279070857552604E+01  0.28914741929251898E-01  0.28263808055539984E-01
  0.98279088372403560E+01  0.28914779878384572E-01  0.28263843919977723E-01
  0.16189422902010431E+02  0.91529684466557557E-01  0.70654685397098224E-01
  0.46919363714692267E+02  0.23025360635248154E+00  0.24854742597089052E+00
  0.46919364081581563E+02  0.23025341536851304E+00  0.24854723685757688E+00
  0.52776881749103076E+02  0.33423854519051957E-01  0.29771245923629914E-01
  0.11242132235326578E+02  0.65314858564017961E-01  0.61474797210403762E-01
  0.11935391035284558E+02  0.85115868355547408E-01  0.78452489870503447E-01
  0.20750381522546647E+02  0.88516464899520128E-01  0.61351782380389935E-01
  0.46222979003117032E+02  0.22393668759354804E+00  0.24588533083380384E+00
  0.46439535965182138E+02  0.24253644847637415E+00  0.26070352313243511E+00
  0.52037064041203038E+02  0.33815741260279468E-01  0.31100068868262446E-01
  0.12093724520606678E+02  0.86238269075329152E-01  0.78926265505911558E-01
  0.14389102849050584E+02  0.22744766772711747E+00  0.18044540381965660E+00
  0.25503147305251563E+02  0.13006917669878094E-01  0.14264434264351042E-01
  0.45958397300893829E+02  0.28638231411239767E+00  0.31787813077625737E+00
  0.46138636739901280E+02  0.23980662224635296E+00  0.26493091695529492E+00
  0.50033262119470322E+02  0.31347027208309411E-01  0.31038508518966789E-01
  0.12675450552916679E+02  0.11053923364772089E+00  0.98715272477226571E-01
  0.16174890010253844E+02  0.91904530174841917E-01  0.70980118397027975E-01
  0.30037190802420241E+02  0.25894019219859184E-01  0.29718217125112054E-01
  0.44903775856563996E+02  0.78830395055130190E-01  0.78442198880384451E-01
  0.46115493200934445E+02  0.24691941728366498E+00  0.27308253730153675E+00
  0.48300888585750208E+02  0.18504923198074880E+00  0.24686875762106505E+00
  0.13021848395522722E+02  0.12057781026259505E+00  0.10603453504767346E+00
  0.16999387247108039E+02  0.86388172980647812E-01  0.63665500954319651E-01
  0.33823650332038845E+02  0.76304073947624590E-01  0.10147407837734417E+00
  0.42560361338113339E+02  0.62127844706009912E-01  0.46395265785127607E-01
  0.46238407385015670E+02  0.22310762133875592E+00  0.24461413319054082E+00
  0.47913781550918074E+02  0.33163130636466742E+00  0.47603897578358589E+00
  0.12985938601420484E+02  0.12050182833353178E+00  0.10616224301983086E+00
  0.17096780928957688E+02  0.86030517138061022E-01  0.63222342039270282E-01
  0.34718168946357238E+02  0.35347163945404048E-01  0.55072271970640643E-01
  0.41587441858812710E+02  0.73785053984531446E-01  0.51616332074585457E-01
  0.46143994032122372E+02  0.23829228805078526E+00  0.26318223127734713E+00
  0.48079262675264367E+02  0.30746042731167877E+00  0.42955806805982877E+00
  0.12595324678545060E+02  0.10613703627416270E+00  0.95111161259165911E-01
  0.16789613894288788E+02  0.86435144679777670E-01  0.64351801107402795E-01
  0.31465624440976097E+02  0.33196803846696453E-01  0.39654636993218792E-01
  0.43135630189629147E+02  0.69658696483083496E-01  0.54128738566992400E-01
  0.46109586471749729E+02  0.24887033354296564E+00  0.27530783219702992E+00
  0.48506681895644824E+02  0.12710728779140471E+00  0.16320931599705435E+00
  0.11789090140400500E+02  0.84319425143468657E-01  0.78185995278108072E-01
  0.16238521777593320E+02  0.90359245754780659E-01  0.69618653673705372E-01
  0.26657421284402076E+02  0.15522263227273124E-01  0.17131211530662230E-01
  0.45108290216034717E+02  0.11106867594965225E+00  0.12149853371984783E+00
  0.46392183384612430E+02  0.23857570578820633E+00  0.25741949368092487E+00
  0.49224866978444936E+02  0.52249095153716063E-01  0.59545997979064402E-01
  0.10241660695658338E+02  0.42350005004794723E-01  0.40956891731548505E-01
  0.14507078039720724E+02  0.13043631063527103E+00  0.10530992776141265E+00
  0.22061645231755236E+02  0.78909997843923923E-02  0.85581800812595012E-02
  0.46774738100829886E+02  0.22556443910717536E+00  0.24173271798526588E+00
  0.46916284394836097E+02  0.23216748291908129E+00  0.25045756296796690E+00
  0.50305760797671972E+02  0.32343399823168008E-01  0.31778787956316376E-01
  0.12314726426021284E+02  0.91915799118187994E-01  0.83326065218989165E-01
  0.12314727152732031E+02  0.91915827494714511E-01  0.83326088470014534E-01
  0.23790232727874617E+02  0.99993379185687181E-02  0.10928671745318339E-01
  0.45566193005984537E+02  0.44233943572683337E+00  0.52163337039904456E+00
  0.45566193202402587E+02  0.44233890515075797E+00  0.52163271390786947E+00
  0.51913922016789954E+02  0.36785947360449316E-01  0.33924036496825197E-01
  0.12968300280031020E+02  0.12039007679332440E+00  0.10615508844676623E+00
  0.14045320527656445E+02  0.17646903595633689E+00  0.14440463877905529E+00
  0.27255534895847056E+02  0.16637822484934048E-01  0.18448087419661672E-01
  0.45350339588486108E+02  0.49532396161191555E+00  0.59995572839536826E+00
  0.45355390291086529E+02  0.50034122090021904E+00  0.60589853602280019E+00
  0.50367863074219557E+02  0.32067795346044196E-01  0.31468084779036037E-01
  0.13498982970058409E+02  0.13749721709639928E+00  0.11669145532692866E+00
  0.16896685938516722E+02  0.86507253717795246E-01  0.64029579283930146E-01
  0.30001271941608856E+02  0.25818731252563371E-01  0.29606371701017164E-01
  0.44770723645725674E+02  0.72224275163684459E-01  0.70555882002199477E-01
  0.45544709414995801E+02  0.49406773190267139E+00  0.58528609092335271E+00
  0.48460264366959684E+02  0.12363424685665525E+00  0.16123647910549352E+00
  0.13859604736626260E+02  0.17732722433224241E+00  0.14682792607230932E+00
  0.19237278243811865E+02  0.71363539802500889E-01  0.52555645334440473E-01
  0.32351421196323969E+02  0.40851927932263915E-01  0.49998150727421649E-01
  0.42548978541513712E+02  0.61873570734640358E-01  0.46133778292690913E-01
  0.45674728909944179E+02  0.31286363187858135E+00  0.35966911239115645E+00
  0.47963025459448161E+02  0.39423291601258775E+00  0.57384939926725542E+00
  0.13857142388967892E+02  0.17710788585284026E+00  0.14666874943779773E+00
  0.20102731247590818E+02  0.89856193096160442E-01  0.62822720442289690E-01
  0.33836557569716057E+02  0.75857312649239450E-01  0.10099394047080074E+00
  0.40419456295243037E+02  0.56309886576048997E-01  0.37373088921554942E-01
  0.45541621028745311E+02  0.49964308104057636E+00  0.59214361080419609E+00
  0.48207054890669568E+02  0.23705066965720883E+00  0.32459572760052641E+00
  0.13560481211509851E+02  0.14274130478360988E+00  0.12064890277128845E+00
  0.19881229167426479E+02  0.86741499820107829E-01  0.60958145602514176E-01
  0.32073862556365491E+02  0.38725147303096188E-01  0.47080227873288638E-01
  0.40879624881332184E+02  0.71076740649969744E-01  0.48629203654468801E-01
  0.45473317990126105E+02  0.54677011216003191E+00  0.65862440114295373E+00
  0.48600630997966526E+02  0.11543066397880113E+00  0.15062800101465082E+00
  0.12983715828954736E+02  0.12049162529264386E+00  0.10616476367706654E+00
  0.18971836939805748E+02  0.69698891674258814E-01  0.51970054630730421E-01
  0.28762466423338925E+02  0.21371293470455431E-01  0.23970685033268622E-01
  0.42748298799928847E+02  0.82791713895692287E-01  0.61391108659122548E-01
  0.45791939393112074E+02  0.25805183460665665E+00  0.28989095058869663E+00
  0.48978373237939742E+02  0.67236241688178072E-01  0.80506616197669106E-01
  0.13467297243751522E+02  0.13473279952950970E+00  0.11459429725844289E+00
  0.13467298450522959E+02  0.13473290421992548E+00  0.11459437664857094E+00
  0.30681251044990386E+02  0.28127971682143916E-01  0.32817848281602668E-01
  0.45138279707827415E+02  0.15762398333404465E+00  0.18165803499563771E+00
  0.45138280067858247E+02  0.15762442843578089E+00  0.18165859953998456E+00
  0.49530251562532229E+02  0.36096178688845883E-01  0.38879079723989213E-01
  0.13896400939617308E+02  0.17975437152128121E+00  0.14849768883439840E+00
  0.15002775802752593E+02  0.12953708592335994E+00  0.10198011538108247E+00
  0.33280724402674139E+02  0.51286969224053104E-01  0.65400223659045242E-01
  0.45031014241933306E+02  0.81477936886242983E-01  0.82289251990292300E-01
  0.45300757691101801E+02  0.41787570927565032E+00  0.50676437595819368E+00
  0.47771157572543807E+02  0.25574198280898902E+00  0.35982859966328007E+00
  0.14206006563580534E+02  0.22321899153994254E+00  0.17944638469566693E+00
  0.17841375981122006E+02  0.78732281857938416E-01  0.58382068215944924E-01
  0.34740691135005726E+02  0.34962065413922008E-01  0.54654606161109828E-01
  0.43015864096464384E+02  0.69720436362034025E-01  0.54030495590553722E-01
  0.45420073536942702E+02  0.60395770536224747E+00  0.73526580015547593E+00
  0.47271478956675388E+02  0.15429218175740342E+00  0.17980347303658892E+00
  0.14210017313202135E+02  0.22305604827759265E+00  0.17929094846101859E+00
  0.20186293823012857E+02  0.90335710631786428E-01  0.63151962329687436E-01
  0.35643190251155247E+02  0.22651930044260863E-01  0.43294960950748793E-01
  0.39882734569809166E+02  0.43779064387845457E-01  0.28834539855813014E-01
  0.45280968849792941E+02  0.37518848840745456E+00  0.45410320139790034E+00
  0.47791223887788853E+02  0.26610773455224024E+00  0.37647197786565795E+00
  0.13984797399401488E+02  0.17828713372646343E+00  0.14651957456267073E+00
  0.20879765519617482E+02  0.10145137240718907E+00  0.67271954647813603E-01
  0.34511841927126603E+02  0.39098314645226430E-01  0.58970373255774609E-01
  0.39134564508569895E+02  0.47984231405244243E-01  0.34129002004517565E-01
  0.45177730758903209E+02  0.18018190054659325E+00  0.20892134843931848E+00
  0.48308175511683721E+02  0.18067853523277244E+00  0.24050973716012677E+00
  0.14177947299610389E+02  0.21754621826010659E+00  0.17521258028857134E+00
  0.14177948417950732E+02  0.21754664397729848E+00  0.17521290478452761E+00
  0.36472826475779740E+02  0.15984557108473407E-01  0.39262821043334686E-01
  0.45386937331703230E+02  0.54468333158582649E+00  0.66061162068803825E+00
  0.45386937681032691E+02  0.54468407932934160E+00  0.66061256267076585E+00
  0.46179452937403937E+02  0.22983282622506671E+00  0.25326669616867303E+00
  0.14375074760437737E+02  0.23627103763032234E+00  0.18733025718542498E+00
  0.15493398178170844E+02  0.11874319682877442E+00  0.92483602062052722E-01
  0.38205559201117815E+02  0.31373116058684522E-01  0.26446286287159785E-01
  0.43481813298653790E+02  0.63738994685802366E-01  0.49496224964747489E-01
  0.45477694863350123E+02  0.54559522687566653E+00  0.65652434207764343E+00
  0.46120717902889268E+02  0.24524948166532201E+00  0.27117693399686044E+00
  0.14371863447722708E+02  0.23709163136844802E+00  0.18798785180330452E+00
  0.18074728855073293E+02  0.76323626308931858E-01  0.56965173333516417E-01
  0.38070421163412846E+02  0.26488788766751065E-01  0.25371857205081418E-01
  0.40732612386564711E+02  0.67335048337368503E-01  0.45720871572807062E-01
  0.45369509358805118E+02  0.51531538245882136E+00  0.62396426448503872E+00
  0.46975722513097750E+02  0.21504230377287251E+00  0.23414392372861101E+00
  0.14446146462356905E+02  0.18884986734157036E+00  0.15040117432617331E+00
  0.14446147122887112E+02  0.18884931403886945E+00  0.15040074619384974E+00
  0.40093010048068102E+02  0.46355913440367713E-01  0.58567797066699429E-01
  0.43276230664577263E+02  0.96534666395160354E-01  0.53033170304996567E-01
  0.45558795786956779E+02  0.46208356943820389E+00  0.54600633510382213E+00
  0.45558795996385889E+02  0.46208302889405073E+00  0.54600566965406905E+00
  0.93388936579896296E+01  0.23042735355669516E-01  0.22782432957875586E-01
  0.11457362508687737E+02  0.74727769464818544E-01  0.69980457288933456E-01
  0.18257801782049352E+02  0.74443008453139614E-01  0.55770870170378330E-01
  0.46979531748255589E+02  0.21175132056790813E+00  0.23082288322019487E+00
  0.47216485941488365E+02  0.15050803503103741E+00  0.17409065868171081E+00
  0.51946416494812908E+02  0.36456047638932051E-01  0.33595377901256655E-01
  0.11094212035236529E+02  0.85685355577149222E-01  0.81459597873099435E-01
  0.13725423199728350E+02  0.15937764524429887E+00  0.13316066942881236E+00
  0.23343496595433162E+02  0.96132160151655190E-02  0.10494795720638628E-01
  0.46243267656813508E+02  0.22298276125170494E+00  0.24436034406245910E+00
  0.46887271881994501E+02  0.27132639448580448E+00  0.29038764719553672E+00
  0.50399111527654838E+02  0.31838947825704296E-01  0.31222686337932085E-01
  0.12161108760499623E+02  0.87349669087706680E-01  0.79704798594767812E-01
  0.14988562242347966E+02  0.12949852270231352E+00  0.10200949631839450E+00
  0.28647107169544114E+02  0.20835517184761829E-01  0.23338215026096294E-01
  0.45267416477090123E+02  0.34138074512194916E+00  0.41193037866891696E+00
  0.46483889940916853E+02  0.24252782883979063E+00  0.25998913712302485E+00
  0.48708953540253937E+02  0.92681714981294433E-01  0.11782736154323796E+00
  0.12714077329034019E+02  0.11253159946249165E+00  0.10032689068215223E+00
  0.15665771173564371E+02  0.11118543115950026E+00  0.86508607855642877E-01
  0.33299955202097557E+02  0.51784671236395956E-01  0.66144217552231668E-01
  0.43276364716220520E+02  0.96532179559431594E-01  0.53031553510617647E-01
  0.46399756965883910E+02  0.23945066215030641E+00  0.25818994487134028E+00
  0.47949825639064315E+02  0.37831030456995024E+00  0.54988314787610726E+00
  0.12909248165612011E+02  0.11964147864163362E+00  0.10577882189601995E+00
  0.15898353256735669E+02  0.10120770553458246E+00  0.78620166447231077E-01
  0.35646997917773028E+02  0.22612451513723392E-01  0.42596841312278172E-01
  0.41797464170447718E+02  0.70000291621432287E-01  0.49152907900539840E-01
  0.46436138760705312E+02  0.24238675535158288E+00  0.26060573761679567E+00
  0.47794367776940632E+02  0.26799703773937944E+00  0.37955576405863922E+00
  0.12565613890580909E+02  0.10446837195224054E+00  0.93734683282936604E-01
  0.13792857705964780E+02  0.16923676598123016E+00  0.14073292929663139E+00
  0.24203252334576085E+02  0.10370726851709170E-01  0.11346142844280340E-01
  0.45543355919229157E+02  0.49658986149920747E+00  0.58838499111562459E+00
  0.46143577127543921E+02  0.23840884100801749E+00  0.26331692394837170E+00
  0.50834967643190829E+02  0.25290264149755895E-01  0.24429985123032915E-01
  0.13533692948501232E+02  0.14049396345927742E+00  0.11895946340796591E+00
  0.16151624169952161E+02  0.92532965012295409E-01  0.71520462062113585E-01
  0.27633264804822982E+02  0.17458722169508830E-01  0.19404205218038116E-01
  0.44840721145461451E+02  0.76141323321718593E-01  0.75197561999085755E-01
  0.46089087037073369E+02  0.25579615962221430E+00  0.28317510298109849E+00
  0.48997773959682576E+02  0.66289056161707008E-01  0.79142080057119674E-01
  0.14053097451798148E+02  0.17678717583143419E+00  0.14456384480852150E+00
  0.18125124028862704E+02  0.75812411226940282E-01  0.56650029524990583E-01
  0.30960615542288849E+02  0.29645091076142344E-01  0.34856569547944839E-01
  0.43176854669407369E+02  0.69384104849154180E-01  0.53938035309994664E-01
  0.45975771617830112E+02  0.28549373854839505E+00  0.31679317609825591E+00
  0.48097279159364120E+02  0.28237176383148366E+00  0.39200705951763976E+00
  0.14271386934753533E+02  0.20103905613686865E+00  0.16156369759550862E+00
  0.18998046927079738E+02  0.69754468075723899E-01  0.51963152098460634E-01
  0.33549690510560161E+02  0.63054272375741682E-01  0.82445058662019149E-01
  0.41106284801607970E+02  0.73910638761789646E-01  0.50918181648422135E-01
  0.45905576091664933E+02  0.28089455465886692E+00  0.31222913937906371E+00
  0.48024099284628555E+02  0.41508411389935412E+00  0.59430058519260787E+00
  0.14130738966177679E+02  0.19538833957788462E+00  0.15828378983829858E+00
  0.18917525531920273E+02  0.69658728683117579E-01  0.52030220008479629E-01
  0.32941580834490061E+02  0.45655150496612389E-01  0.56968980361192537E-01
  0.41156011100017295E+02  0.74123634042826111E-01  0.51120935570514760E-01
  0.45826056922695130E+02  0.26166336315873667E+00  0.29254172336001372E+00
  0.48225840585322956E+02  0.22871284484575519E+00  0.31194987300462529E+00
  0.13656679337124480E+02  0.15119304356526531E+00  0.12695466914161907E+00
  0.18223832041667965E+02  0.74796333449535707E-01  0.56002795282771294E-01
  0.29560859607392292E+02  0.24801540059160371E-01  0.28167728316972309E-01
  0.42959129369024176E+02  0.69384709229525388E-01  0.53659852750762890E-01
  0.45954697095499412E+02  0.28638547620177712E+00  0.31790445718918314E+00
  0.48609809975947968E+02  0.11398480874976871E+00  0.14868502113350679E+00
  0.12677722295014151E+02  0.11065901648713510E+00  0.98812668160711742E-01
  0.16739427097218496E+02  0.86373216720459375E-01  0.64507705643385871E-01
  0.25962410113700980E+02  0.14122127486549160E-01  0.15513574035324822E-01
  0.44851405767751615E+02  0.76671387244014275E-01  0.75830315251549402E-01
  0.46419091113119705E+02  0.24128668467973072E+00  0.25975996749782776E+00
  0.49234632169593390E+02  0.51827143358193613E-01  0.58993014764769307E-01
  0.14264218755774149E+02  0.20371011312392232E+00  0.16372877241695402E+00
  0.14883148037090381E+02  0.12874708832364576E+00  0.10191402893614798E+00
  0.30119043143792492E+02  0.26078237792734431E-01  0.29989044364650552E-01
  0.44838278107447380E+02  0.76022605388505152E-01  0.75056234384026407E-01
  0.45567752098007098E+02  0.43812787914986545E+00  0.51641921369798593E+00
  0.48806343689469202E+02  0.75394020391425245E-01  0.92679342935652817E-01
  0.14875368988380956E+02  0.12866909975522964E+00  0.10189305792253676E+00
  0.17513999179463891E+02  0.82372587152932178E-01  0.60548361257566310E-01
  0.32168249404362058E+02  0.39502480561692276E-01  0.48134038398314309E-01
  0.43527073875976974E+02  0.62477091530045423E-01  0.48502568897135036E-01
  0.45623495676910004E+02  0.34922249294960361E+00  0.40478886531489749E+00
  0.47692717470868210E+02  0.21469563015677054E+00  0.29205435024274212E+00
  0.15087256672325195E+02  0.12936282905190674E+00  0.10152410793053432E+00
  0.19908903077106409E+02  0.87321758306608446E-01  0.61293865813381518E-01
  0.33770786547999428E+02  0.76576570422808674E-01  0.10145827948945027E+00
  0.40849841579280280E+02  0.70441307634973915E-01  0.48131498695505863E-01
  0.45506246507441986E+02  0.53458159989816312E+00  0.63798075284369149E+00
  0.47802285882422282E+02  0.27330313369029369E+00  0.38830633553242666E+00
  0.14973024431945738E+02  0.12944017535083299E+00  0.10203128055147152E+00
  0.20697237470384799E+02  0.93131584297914072E-01  0.64510760198905046E-01
  0.34081622368829230E+02  0.53742061127829650E-01  0.74698815901133406E-01
  0.39346271653778039E+02  0.48048498274852282E-01  0.34102603926878174E-01
  0.45366768681583984E+02  0.51205585805251896E+00  0.61997861087353612E+00
  0.48142148466029539E+02  0.25648081350014312E+00  0.35368491922375267E+00
  0.14557923830727741E+02  0.12502362364516162E+00  0.10086635343429025E+00
  0.20072359109427026E+02  0.89621820169422259E-01  0.62671144881729951E-01
  0.31678670930679726E+02  0.35103402001666902E-01  0.42215691801279445E-01
  0.40795841395764953E+02  0.69115918795381259E-01  0.47098410910567462E-01
  0.45482900944889977E+02  0.54437183450523796E+00  0.65417853589267028E+00
  0.48436409377794924E+02  0.12755558003036629E+00  0.16645109817610290E+00
  0.15074689612961475E+02  0.12943330100246039E+00  0.10162275712526338E+00
  0.15560004873193373E+02  0.11587707317979233E+00  0.90210437407532373E-01
  0.35451104573694330E+02  0.24806591665803939E-01  0.43113834629935933E-01
  0.43987318149977170E+02  0.49195305896025561E-01  0.38970166298689886E-01
  0.45507415149699604E+02  0.53374108899784856E+00  0.63674953595894734E+00
  0.46767800844726231E+02  0.22715218386276237E+00  0.24333882398219256E+00
  0.15401924064785115E+02  0.12234865125638555E+00  0.95373187491176861E-01
  0.18133674921007000E+02  0.75724796166132757E-01  0.56595386755961423E-01
  0.36462360670513625E+02  0.16050339870718230E-01  0.39347988211148259E-01
  0.41130005712432556E+02  0.74028684462994085E-01  0.51026794160585122E-01
  0.45436624939635870E+02  0.58995750450732476E+00  0.71670110365714312E+00
  0.47118192337875392E+02  0.15420679459769873E+00  0.17492878689106009E+00
  0.15333078974657198E+02  0.12469049986047900E+00  0.97286922508334692E-01
  0.20359704293088971E+02  0.91784831021669094E-01  0.64118303633582799E-01
  0.36388092525926844E+02  0.16524029888050920E-01  0.39840595494000770E-01
  0.38553786529508372E+02  0.42262169184054531E-01  0.28979056805380946E-01
  0.45280223298167591E+02  0.37344911467856645E+00  0.45194379457200401E+00
  0.47735879888372921E+02  0.23816962793977561E+00  0.33133464339919677E+00
  0.15289424093157873E+02  0.12597701778484649E+00  0.98361719585931678E-01
  0.15842993838755580E+02  0.10346533678073148E+00  0.80415455299387317E-01
  0.38863618601438311E+02  0.61094160897000920E-01  0.54359592424666002E-01
  0.41863623627145913E+02  0.67871561630242883E-01  0.47648019549674459E-01
  0.45542148359970206E+02  0.49874446476148976E+00  0.59103740026963603E+00
  0.46331395814717638E+02  0.22992962442439346E+00  0.24960163505577448E+00
  0.15185387137146549E+02  0.12827313215469582E+00  0.10037825078639440E+00
  0.17799087045729166E+02  0.79185488039248422E-01  0.58643719003392866E-01
  0.29869762450420744E+02  0.25546672839429727E-01  0.29203988214567017E-01
  0.43205974699526820E+02  0.69570037373476737E-01  0.53738295582810319E-01
  0.45890953890659937E+02  0.27764524479365060E+00  0.30881207937325883E+00
  0.48186019508323405E+02  0.24451552359942089E+00  0.33589478040653364E+00
  0.15926329756424524E+02  0.10010898254952624E+00  0.77741992689507933E-01
  0.19569103306515764E+02  0.77976755549147000E-01  0.56014967637474239E-01
  0.32235173046054797E+02  0.40015828840109798E-01  0.48837049396315939E-01
  0.40978698628192021E+02  0.72758904407758562E-01  0.49963330742078753E-01