  0.00000000000000000E+00  0.00000000000000000E+00  0.00000000000000000E+00
  0.00000000000000000E+00  0.00000000000000000E+00  0.00000000000000000E+00
  0.00000000000000000E+00  0.00000000000000000E+00  0.00000000000000000E+00
  0.48535018054055598E+02  0.23098241561696844E-01  0.27174552089178679E-01
  0.48535018054055612E+02  0.23098241570401096E-01  0.27174552092350406E-01
  0.48535018054079636E+02  0.22937394209032597E-01  0.27115940847839994E-01
  0.38324487420272302E+01  0.41109636184866600E-03  0.46251362280978146E-03
  0.38324493871153833E+01  0.47282383144325494E-03  0.53266445716004676E-03
  0.82580303336754124E+01  0.24026323954864557E-02  0.26393671581154249E-02
  0.48293530820623957E+02  0.32931740269503379E-01  0.41342305142936825E-01
  0.48293530871837952E+02  0.31897881090727324E-01  0.40298914841435975E-01
  0.51941099849072259E+02  0.61637464829902965E-02  0.52425166668193116E-02
  0.69989750982010630E+01  0.16030954246667600E-02  0.16995408448639898E-02
  0.69989754782315465E+01  0.16276331315719344E-02  0.17250898722926730E-02
  0.16168688269578574E+02  0.14820243855399609E-01  0.12480030648475528E-01
  0.47700948856589669E+02  0.36904875370571501E-01  0.48928672571394230E-01
  0.47700948912371800E+02  0.37324888984188495E-01  0.49641021082344333E-01
  0.52323487373047222E+02  0.10131796312227855E-01  0.85049093161384103E-02
  0.91147157948533408E+01  0.36480830456698372E-02  0.35890735421722575E-02
  0.91147164328113579E+01  0.35710539347875801E-02  0.35171975603833358E-02
  0.23522228155467712E+02  0.15524220007994078E-02  0.18337204521232050E-02
  0.47115154526721803E+02  0.25513971496562766E-01  0.29445385673097343E-01
  0.47115154650116679E+02  0.25711784793503948E-01  0.29277813441599670E-01
  0.51291613371283511E+02  0.42834316108780269E-02  0.37612028526039848E-02
  0.10274990032262874E+02  0.75221607901198714E-02  0.70211229169366762E-02
  0.10274990940559862E+02  0.69263591116808460E-02  0.64656421770400369E-02
  0.30130269146926167E+02  0.41971474679356070E-02  0.52026910626090783E-02
  0.46874499111284543E+02  0.46105282994054829E-01  0.50975055256672237E-01
  0.46874499310363070E+02  0.45786372453445051E-01  0.50647743389823051E-01
  0.48648901231483919E+02  0.18541055722429325E-01  0.22183486363628900E-01
  0.10866886786904884E+02  0.11123631386135750E-01  0.10199937872832339E-01
  0.10866887082858105E+02  0.11826103939132112E-01  0.10846717591682700E-01
  0.35663160436804333E+02  0.34965419331598126E-02  0.74288523153857632E-02
  0.45240844695612672E+02  0.45938571369737780E-01  0.47250225215047265E-01
  0.46955035744746766E+02  0.38010813583115234E-01  0.42693693391631482E-01
  0.46955035813261830E+02  0.36071657950455020E-01  0.40782125293147641E-01
  0.11071057503794982E+02  0.16973387458030263E-01  0.15615490533076901E-01
  0.11071058676296902E+02  0.16809002292193141E-01  0.15459333105604170E-01
  0.38860602648041436E+02  0.81015122272425164E-02  0.10997912638503190E-01
  0.42728620557214327E+02  0.17524379584303664E-01  0.84640194532159471E-02
  0.47041787648880003E+02  0.33213652630919993E-01  0.37740662638141402E-01
  0.47041787924844719E+02  0.33377885748629793E-01  0.38252176280394741E-01
  0.10866886786904873E+02  0.11123631386135679E-01  0.10199937872832288E-01
  0.10866887082858078E+02  0.11826103939131955E-01  0.10846717591682554E-01
  0.35663160436804354E+02  0.34965419331597744E-02  0.74288523153856314E-02
  0.45240844695612644E+02  0.45938571369721008E-01  0.47250225215029126E-01
  0.46955035744746766E+02  0.38010813583115192E-01  0.42693693391631392E-01
  0.46955035813261837E+02  0.36071657950454743E-01  0.40782125293147335E-01
  0.10274990032262782E+02  0.75221607901196311E-02  0.70211229169364472E-02
  0.10274990940559842E+02  0.69263591116807740E-02  0.64656421770399762E-02
  0.30130269146926153E+02  0.41971474679355931E-02  0.52026910626090678E-02
  0.46874499111284543E+02  0.46105282994054836E-01  0.50975055256672216E-01
  0.46874499310363070E+02  0.45786372453445065E-01  0.50647743389822870E-01
  0.48648901231483919E+02  0.18541055722429325E-01  0.22183486363628893E-01
  0.91147157948532787E+01  0.36480830456697591E-02  0.35890735421721851E-02
  0.91147164328113988E+01  0.35710539347876360E-02  0.35171975603833861E-02
  0.23522228155467726E+02  0.15524220007994102E-02  0.18337204521232065E-02
  0.47115154526721810E+02  0.25513971496562607E-01  0.29445385673097273E-01
  0.47115154650116693E+02  0.25711784793503605E-01  0.29277813441599434E-01
  0.51291613371283503E+02  0.42834316108780043E-02  0.37612028526039739E-02
  0.69989750982010834E+01  0.16030954246667767E-02  0.16995408448640091E-02
  0.69989754782315332E+01  0.16276331315719242E-02  0.17250898722926634E-02
  0.16168688269578610E+02  0.14820243855399415E-01  0.12480030648475375E-01
  0.47700948856589662E+02  0.36904875370570897E-01  0.48928672571393161E-01
  0.47700948912371786E+02  0.37324888984186858E-01  0.49641021082342064E-01
  0.52323487373047222E+02  0.10131796312227839E-01  0.85049093161384034E-02
  0.38324487420271875E+01  0.41109636184865868E-03  0.46251362280977327E-03
  0.38324493871153553E+01  0.47282383144324995E-03  0.53266445716004156E-03
  0.82580303336754124E+01  0.24026323954864574E-02  0.26393671581154245E-02
  0.48293530820623950E+02  0.32931740269504184E-01  0.41342305142937893E-01
  0.48293530871837945E+02  0.31897881090727970E-01  0.40298914841436932E-01
  0.51941099849072238E+02  0.61637464829903520E-02  0.52425166668193515E-02
  0.54742587906376352E+01  0.69117419004547254E-03  0.76059973996128825E-03
  0.54742596315590761E+01  0.70205352073017481E-03  0.77294430651137001E-03
  0.81910958308978490E+01  0.23351863779699964E-02  0.25949128080812543E-02
  0.48144907262343949E+02  0.44427794203429447E-01  0.57751740876418094E-01
  0.48144907357976088E+02  0.42873984139015275E-01  0.56897524767613075E-01
  0.52138460820021812E+02  0.11495405202620580E-01  0.96650875140511620E-02
  0.78135582927234335E+01  0.21935068526509126E-02  0.23011526556980257E-02
  0.79870015467450788E+01  0.22811522802556076E-02  0.23483189281381842E-02
  0.14302415359294114E+02  0.31411315253629647E-01  0.27545046376626355E-01
  0.47538771504406142E+02  0.28385502584239358E-01  0.34688398650236277E-01
  0.47726230372391008E+02  0.39019818569522031E-01  0.52792416743941604E-01
  0.52401176670264832E+02  0.84016195732163432E-02  0.69810296729748587E-02
  0.98175626539456555E+01  0.48640652172857414E-02  0.45733991227376418E-02
  0.10178389188566618E+02  0.68459733047603845E-02  0.65851146465102728E-02
  0.21124192175035923E+02  0.46276891680544071E-02  0.38049620654581808E-02
  0.46862594130226441E+02  0.44621321938424906E-01  0.49580291828903097E-01
  0.47294796814066942E+02  0.26026956754165772E-01  0.30328782077190180E-01
  0.51550258091386901E+02  0.51105858676704701E-02  0.44729279739773370E-02
  0.10871453935243718E+02  0.11489056440579518E-01  0.10224315983888198E-01
  0.11820145649004782E+02  0.14456507114976039E-01  0.12812458921962540E-01
  0.27534117611207083E+02  0.28013066287397755E-02  0.32872005779053070E-02
  0.46584110470124678E+02  0.38285476896588913E-01  0.43774542374742133E-01
  0.46793172873016303E+02  0.37425231789156188E-01  0.39179636925923321E-01
  0.49395169635011079E+02  0.71339397172610029E-02  0.80547448710331891E-02
  0.11475638133051261E+02  0.12896273526845260E-01  0.11290983510393562E-01
  0.12691506924801503E+02  0.19187984290502561E-01  0.16029614580868441E-01
  0.33146357773584583E+02  0.77041916270597192E-02  0.10536483722528077E-01
  0.45356030385928698E+02  0.90496464765548498E-01  0.92847484228569518E-01
  0.46696104074027531E+02  0.38070892456828327E-01  0.43397610863716046E-01
  0.47579855212068466E+02  0.26862206022997135E-01  0.39769263873279753E-01
  0.11759091855326231E+02  0.14241676232686658E-01  0.12477202004824571E-01
  0.13063196473130141E+02  0.20838528564678695E-01  0.17026609281922421E-01
  0.37149236590493111E+02  0.20099819859987957E-02  0.50376534599378461E-02
  0.42748253941092813E+02  0.15381746410106388E-01  0.87113871633576773E-02
  0.46806407863055540E+02  0.35489254450793213E-01  0.40299161905568717E-01
  0.47382687451449470E+02  0.25790280895901969E-01  0.35220335038382240E-01
  0.11643874506840287E+02  0.13793310585598541E-01  0.12170355093750780E-01
  0.13019926711264299E+02  0.20925277093908731E-01  0.17034495386848765E-01
  0.36156732547294503E+02  0.28196864692047073E-02  0.71419523907720397E-02
  0.43384270863629432E+02  0.11730364599826803E-01  0.76041707683509163E-02
  0.46735062891975389E+02  0.37620770923114076E-01  0.42395536272694753E-01
  0.47491790850054386E+02  0.26227901098215493E-01  0.37067780914275435E-01
  0.11134431471780450E+02  0.10767239219620625E-01  0.97198205480940707E-02
  0.12641302174893553E+02  0.18889538896106926E-01  0.15508320535609174E-01
  0.31412178374711740E+02  0.53299063513380113E-02  0.66849057761137311E-02
  0.45756787167665408E+02  0.45985661309940674E-01  0.46960846407788019E-01
  0.46688848677188950E+02  0.38572458638608392E-01  0.43021497287460873E-01
  0.48107160082757488E+02  0.42456019942912177E-01  0.67609597316077186E-01
  0.10088791140048249E+02  0.61014682301202402E-02  0.58219964293769752E-02
  0.11953424108779963E+02  0.14691286018313827E-01  0.12605858950454475E-01
  0.25421850472897361E+02  0.20729356566576143E-02  0.24055923289382952E-02
  0.46753470339281066E+02  0.38440232944208112E-01  0.41177487618819356E-01
  0.46921305171877258E+02  0.37878983376258099E-01  0.41659533852245363E-01
  0.50089454803682749E+02  0.52041431116759728E-02  0.51297582161844591E-02
  0.81550315925130672E+01  0.23720663071787888E-02  0.24593529373857243E-02
  0.10581468457514941E+02  0.74409808825966969E-02  0.69599336368853185E-02
  0.18830424380988095E+02  0.11135739950906474E-01  0.90042796593508573E-02
  0.47414535473884570E+02  0.28138744998954131E-01  0.33469985708941760E-01
  0.47429217598610009E+02  0.28435123027976347E-01  0.33132930386577338E-01
  0.51714608199776201E+02  0.56775568418415611E-02  0.49688319866773405E-02
  0.54809716941640430E+01  0.69280495959573858E-03  0.76245481590916399E-03
  0.78965779855937699E+01  0.22301173862826896E-02  0.23423259203619023E-02
  0.12436554751104849E+02  0.15432119691903287E-01  0.15158528008926310E-01
  0.47976741846102179E+02  0.69054440193633757E-01  0.97148412307207915E-01
  0.47980622139855662E+02  0.71226384330976750E-01  0.97496369662078752E-01
  0.52162901018248299E+02  0.15460572995826842E-01  0.13109915303469102E-01
  0.98279070857552444E+01  0.49072366219037921E-02  0.46000580342108171E-02
  0.98279088372403685E+01  0.49343770917910975E-02  0.46224356424543409E-02
  0.16189422902010463E+02  0.14353822130172085E-01  0.12471388279119843E-01
  0.46919363714692267E+02  0.37539154016523787E-01  0.42232796834336069E-01
  0.46919364081581563E+02  0.37592616833394356E-01  0.42364359822824688E-01
  0.52776881749103076E+02  0.58997059421930509E-02  0.46687713496352404E-02
  0.11242132235326547E+02  0.11440183803808736E-01  0.96873904780829766E-02
  0.11935391035284534E+02  0.14849531258104795E-01  0.12445777731209870E-01
  0.20750381522546654E+02  0.13896553558981603E-01  0.10801734090405947E-01
  0.46222979003117040E+02  0.35548411469398682E-01  0.43511099667741332E-01
  0.46439535965182124E+02  0.39070083816744330E-01  0.45792527902900705E-01
  0.52037064041203038E+02  0.59350126290156086E-02  0.49010321310923761E-02
  0.12093724520606637E+02  0.15539144602144521E-01  0.12370856830283968E-01
  0.14389102849050570E+02  0.40925062345419469E-01  0.28165452650948452E-01
  0.25503147305251559E+02  0.20633795356523855E-02  0.24894180299002669E-02
  0.45958397300893829E+02  0.43954578871145573E-01  0.56215999044022309E-01
  0.46138636739901251E+02  0.38660425593493870E-01  0.45068534662112220E-01
  0.50033262119470329E+02  0.52336745938618024E-02  0.51353219329890671E-02
  0.12675450552916677E+02  0.19624052646299458E-01  0.15343052293336804E-01
  0.16174890010253854E+02  0.16811914448171886E-01  0.10859097270609073E-01
  0.30037190802420245E+02  0.41419466897791085E-02  0.51588357729257586E-02
  0.44903775856563996E+02  0.13749338985856481E-01  0.12089315733650484E-01
  0.46115493200934445E+02  0.38571705336771130E-01  0.48865491475026550E-01
  0.48300888585750208E+02  0.27588720717325040E-01  0.45757143186198376E-01
  0.13021848395522737E+02  0.21113931260983002E-01  0.16507170762721759E-01
  0.16999387247108029E+02  0.15746613316392207E-01  0.95872892617141752E-02
  0.33823650332038852E+02  0.12256901062685744E-01  0.17567090668324091E-01
  0.42560361338113339E+02  0.11209768998495977E-01  0.69326733687283979E-02
  0.46238407385015691E+02  0.35140386219007405E-01  0.43514578912312779E-01
  0.47913781550918081E+02  0.46863587249494160E-01  0.90682852932272892E-01
  0.12985938601420477E+02  0.21017784853200723E-01  0.16570648805461271E-01
  0.17096780928957688E+02  0.15732878965571313E-01  0.94652894496030059E-02
  0.34718168946357238E+02  0.58201729182047893E-02  0.94592546619255355E-02
  0.41587441858812710E+02  0.13319009594354728E-01  0.81102239267141617E-02
  0.46143994032122372E+02  0.37715989079581520E-01  0.46699241260599891E-01
  0.48079262675264360E+02  0.43924115327622519E-01  0.82132904945542470E-01
  0.12595324678545081E+02  0.18573584599687484E-01  0.15114659235074678E-01
  0.16789613894288781E+02  0.15978598185330657E-01  0.95807036238212961E-02
  0.31465624440976107E+02  0.55177016700442656E-02  0.66525130233108807E-02
  0.43135630189629161E+02  0.11466223377659365E-01  0.85638853379272038E-02
  0.46109586471749729E+02  0.39619201739218103E-01  0.48398329966107032E-01
  0.48506681895644824E+02  0.18221975541873187E-01  0.31019454610463768E-01
  0.11789090140400516E+02  0.14329836436936340E-01  0.12522825544085526E-01
  0.16238521777593320E+02  0.16648287641682840E-01  0.10441850160351231E-01
  0.26657421284402091E+02  0.25261195686192301E-02  0.29023242343374773E-02
  0.45108290216034725E+02  0.18480434257160363E-01  0.19590771685703872E-01
  0.46392183384612458E+02  0.38124585377158793E-01  0.43810442628642282E-01
  0.49224866978444943E+02  0.77557295446593240E-02  0.10886080770038487E-01
  0.10241660695658366E+02  0.68855279702375151E-02  0.65732448791902785E-02
  0.14507078039720721E+02  0.23119730320435086E-01  0.16436022843876040E-01
  0.22061645231755236E+02  0.12798541998596267E-02  0.14872566245870814E-02
  0.46774738100829886E+02  0.38013187055407897E-01  0.39932633782384333E-01
  0.46916284394836097E+02  0.38527556807712866E-01  0.42137509517523625E-01
  0.50305760797671972E+02  0.51490329965071836E-02  0.53349063702976506E-02
  0.81550315925130672E+01  0.23720663071787880E-02  0.24593529373857261E-02
  0.10581468457514886E+02  0.74409808825966007E-02  0.69599336368852387E-02
  0.18830424380988106E+02  0.11135739950906469E-01  0.90042796593508487E-02
  0.47414535473884577E+02  0.28138744998954076E-01  0.33469985708941878E-01
  0.47429217598609995E+02  0.28435123027976190E-01  0.33132930386577088E-01
  0.51714608199776237E+02  0.56775568418416956E-02  0.49688319866774333E-02
  0.12314726426021299E+02  0.16906509575751402E-01  0.12785846403132958E-01
  0.12314727152732086E+02  0.16508077435134209E-01  0.12472952106666893E-01
  0.23790232727874617E+02  0.15372438480394479E-02  0.19627760039325737E-02
  0.45566193005984530E+02  0.67078666407409129E-01  0.94850863076452477E-01
  0.45566193202402580E+02  0.67008480029905892E-01  0.94780842818821751E-01
  0.51913922016789954E+02  0.66067109005204594E-02  0.52152969362149046E-02
  0.12968300280031052E+02  0.22062588035514748E-01  0.15620648152150866E-01
  0.14045320527656450E+02  0.32985519823623084E-01  0.21153021484576713E-01
  0.27255534895847060E+02  0.25095051735698182E-02  0.33675786902559075E-02
  0.45350339588486094E+02  0.73286040836621394E-01  0.11072641708806252E+00
  0.45355390291086529E+02  0.75541475870537819E-01  0.11089817048655107E+00
  0.50367863074219557E+02  0.57164055138796757E-02  0.48753713755094021E-02
  0.13498982970058416E+02  0.25225042180243105E-01  0.17332546210687614E-01
  0.16896685938516711E+02  0.16734669916317939E-01  0.89636913633822004E-02
  0.30001271941608856E+02  0.37674418386120429E-02  0.55493554467133293E-02
  0.44770723645725681E+02  0.12176703660772345E-01  0.11547339208937265E-01
  0.45544709414995808E+02  0.73701232535200431E-01  0.10801730088913220E+00
  0.48460264366959677E+02  0.19468647667080889E-01  0.28326682743373719E-01
  0.13859604736626313E+02  0.32035811887215541E-01  0.21826410990454945E-01
  0.19237278243811875E+02  0.14347430356263650E-01  0.71075860058009439E-02
  0.32351421196323976E+02  0.57889072522709041E-02  0.95284215147862471E-02
  0.42548978541513712E+02  0.11573356303237260E-01  0.66147773031775435E-02
  0.45674728909944193E+02  0.47229213645511997E-01  0.66005923290781046E-01
  0.47963025459448161E+02  0.53479106334698268E-01  0.11207906228759075E+00
  0.13857142388967834E+02  0.31909819545180483E-01  0.21882132667424094E-01
  0.20102731247590814E+02  0.17940789437350731E-01  0.82976039859830684E-02
  0.33836557569716064E+02  0.11238472876855263E-01  0.18724646679942274E-01
  0.40419456295243045E+02  0.10315552709783930E-01  0.55456531851383710E-02
  0.45541621028745304E+02  0.75533631195289316E-01  0.10817075505745448E+00
  0.48207054890669568E+02  0.32007053976355331E-01  0.64903002906429891E-01
  0.13560481211509838E+02  0.25661401232311361E-01  0.18302527265238962E-01
  0.19881229167426476E+02  0.17438443148371712E-01  0.80475966274825943E-02
  0.32073862556365505E+02  0.61557980920426067E-02  0.81713205183343122E-02
  0.40879624881332184E+02  0.11871607113699436E-01  0.78454679687787344E-02
  0.45473317990126141E+02  0.82462086954099609E-01  0.11774196659994189E+00
  0.48600630997966526E+02  0.15646129427860492E-01  0.29807094630887331E-01
  0.12983715828954741E+02  0.21103776861321793E-01  0.16492421981145429E-01
  0.18971836939805751E+02  0.13759726060932518E-01  0.70676583514903838E-02
  0.28762466423338910E+02  0.34326787642528331E-02  0.41152194328533806E-02
  0.42748298799928847E+02  0.13514945548902780E-01  0.10024312287824445E-01
  0.45791939393112074E+02  0.40447126748270931E-01  0.51285724662571253E-01
  0.48978373237939735E+02  0.94087584065941764E-02  0.15465504703215435E-01
  0.11789090140400553E+02  0.14329836436936440E-01  0.12522825544085582E-01
  0.16238521777593320E+02  0.16648287641682902E-01  0.10441850160351256E-01
  0.26657421284402080E+02  0.25261195686192249E-02  0.29023242343374726E-02
  0.45108290216034732E+02  0.18480434257162087E-01  0.19590771685706023E-01
  0.46392183384612458E+02  0.38124585377158779E-01  0.43810442628642393E-01
  0.49224866978444936E+02  0.77557295446593578E-02  0.10886080770038531E-01
  0.10088791140048261E+02  0.61014682301203139E-02  0.58219964293770472E-02
  0.11953424108779997E+02  0.14691286018313834E-01  0.12605858950454440E-01
  0.25421850472897368E+02  0.20729356566576186E-02  0.24055923289383035E-02
  0.46753470339281087E+02  0.38440232944207210E-01  0.41177487618818724E-01
  0.46921305171877250E+02  0.37878983376258717E-01  0.41659533852246244E-01
  0.50089454803682742E+02  0.52041431116759624E-02  0.51297582161844400E-02
  0.13467297243751522E+02  0.25479240469662150E-01  0.16596743888892620E-01
  0.13467298450523000E+02  0.25353739001647529E-01  0.16564501243933244E-01
  0.30681251044990400E+02  0.40603628283228544E-02  0.62019212195314937E-02
  0.45138279707827436E+02  0.23274520013098560E-01  0.34761680774164118E-01
  0.45138280067858268E+02  0.22338687167543125E-01  0.33775678785875445E-01
  0.49530251562532229E+02  0.68214605247148832E-02  0.56123197175168100E-02
  0.13896400939617342E+02  0.33415096340304901E-01  0.21218985336741044E-01
  0.15002775802752595E+02  0.24345375838782938E-01  0.14121656168087492E-01
  0.33280724402674139E+02  0.68756959680542117E-02  0.13022488513225952E-01
  0.45031014241933320E+02  0.12567522864798682E-01  0.13857963918311967E-01
  0.45300757691101808E+02  0.60129099915809288E-01  0.94861287064787553E-01
  0.47771157572543807E+02  0.46099597098420680E-01  0.54901720176700156E-01
  0.14206006563580519E+02  0.40942001575597346E-01  0.25646092446583914E-01
  0.17841375981121995E+02  0.15621335389774402E-01  0.77573667504704678E-02
  0.34740691135005726E+02  0.41480663393398242E-02  0.11769209136085493E-01
  0.43015864096464398E+02  0.14407125663572138E-01  0.65701629596846452E-02
  0.45420073536942709E+02  0.87954021262031168E-01  0.13742410058631532E+00
  0.47271478956675388E+02  0.21342243999377911E-01  0.34712976564182499E-01
  0.14210017313202142E+02  0.40819317379898308E-01  0.25680665329876246E-01
  0.20186293823012853E+02  0.18690186481969295E-01  0.78462306385079037E-02
  0.35643190251155247E+02  0.22205214266588233E-02  0.10232552645266332E-01
  0.39882734569809166E+02  0.10121641179387238E-01  0.30020348937031590E-02
  0.45280968849792934E+02  0.54687653738803764E-01  0.84550610155460920E-01
  0.47791223887788853E+02  0.34576805748944235E-01  0.75720457450837456E-01
  0.13984797399401495E+02  0.32720090308864053E-01  0.21433052929642177E-01
  0.20879765519617479E+02  0.21233975712547180E-01  0.82508095773627371E-02
  0.34511841927126596E+02  0.52536265639083939E-02  0.11842414412984382E-01
  0.39134564508569888E+02  0.92517380501291793E-02  0.48479383156803174E-02
  0.45177730758903209E+02  0.27032423081028985E-01  0.39225277996383048E-01
  0.48308175511683714E+02  0.23724250759753689E-01  0.48911075612786147E-01
  0.13560481211509849E+02  0.25661401232311531E-01  0.18302527265239069E-01
  0.19881229167426504E+02  0.17438443148371844E-01  0.80475966274826515E-02
  0.32073862556365498E+02  0.61557980920425902E-02  0.81713205183342810E-02
  0.40879624881332184E+02  0.11871607113699454E-01  0.78454679687787465E-02
  0.45473317990126155E+02  0.82462086954099068E-01  0.11774196659994081E+00
  0.48600630997966526E+02  0.15646129427860474E-01  0.29807094630887359E-01
  0.12595324678545110E+02  0.18573584599687772E-01  0.15114659235074887E-01
  0.16789613894288806E+02  0.15978598185330713E-01  0.95807036238212614E-02
  0.31465624440976104E+02  0.55177016700442630E-02  0.66525130233108581E-02
  0.43135630189629161E+02  0.11466223377659368E-01  0.85638853379271986E-02
  0.46109586471749743E+02  0.39619201739217388E-01  0.48398329966106095E-01
  0.48506681895644824E+02  0.18221975541873089E-01  0.31019454610463734E-01
  0.11134431471780450E+02  0.10767239219620592E-01  0.97198205480940481E-02
  0.12641302174893575E+02  0.18889538896107123E-01  0.15508320535609231E-01
  0.31412178374711722E+02  0.53299063513379688E-02  0.66849057761137068E-02
  0.45756787167665394E+02  0.45985661309941389E-01  0.46960846407788949E-01
  0.46688848677188965E+02  0.38572458638608302E-01  0.43021497287460582E-01
  0.48107160082757474E+02  0.42456019942913772E-01  0.67609597316080114E-01
  0.14177947299610388E+02  0.41687417222919916E-01  0.25546164590678870E-01
  0.14177948417950702E+02  0.40667363432553588E-01  0.24933437734617123E-01
  0.36472826475779755E+02  0.18412165036296765E-02  0.85650322818599262E-02
  0.45386937331703230E+02  0.78311162387554215E-01  0.12482353508757919E+00
  0.45386937681032677E+02  0.78614776988659138E-01  0.12525907384100587E+00
  0.46179452937403944E+02  0.50137140533168437E-01  0.29173083592180023E-01
  0.14375074760437727E+02  0.43901835325113256E-01  0.26655096862693541E-01
  0.15493398178170841E+02  0.22526987391316297E-01  0.12876385462546922E-01
  0.38205559201117815E+02  0.23457737883198684E-02  0.68387128730147779E-02
  0.43481813298653790E+02  0.16269064477178349E-01  0.38013894063235821E-02
  0.45477694863350116E+02  0.78059448456101771E-01  0.12257555294775926E+00
  0.46120717902889268E+02  0.35101330749178448E-01  0.51157357942079380E-01
  0.14371863447722731E+02  0.43998091096580545E-01  0.26797417653628315E-01
  0.18074728855073293E+02  0.15215389696605977E-01  0.75075817549823901E-02
  0.38070421163412846E+02  0.24915766116053215E-03  0.82220190356897434E-02
  0.40732612386564682E+02  0.21708922735684325E-01  0.44483658177520597E-03
  0.45369509358805111E+02  0.74462108775790112E-01  0.11746947563891477E+00
  0.46975722513097750E+02  0.28806512705251846E-01  0.47132561013698865E-01
  0.14210017313202135E+02  0.40819317379898364E-01  0.25680665329876229E-01
  0.20186293823012850E+02  0.18690186481969295E-01  0.78462306385078933E-02
  0.35643190251155247E+02  0.22205214266588272E-02  0.10232552645266306E-01
  0.39882734569809166E+02  0.10121641179387242E-01  0.30020348937031672E-02
  0.45280968849792934E+02  0.54687653738803854E-01  0.84550610155461059E-01
  0.47791223887788860E+02  0.34576805748944735E-01  0.75720457450838663E-01
  0.13857142388967890E+02  0.31909819545181184E-01  0.21882132667424566E-01
  0.20102731247590846E+02  0.17940789437350786E-01  0.82976039859830892E-02
  0.33836557569716057E+02  0.11238472876855287E-01  0.18724646679942267E-01
  0.40419456295243037E+02  0.10315552709783848E-01  0.55456531851383641E-02
  0.45541621028745311E+02  0.75533631195287471E-01  0.10817075505745161E+00
  0.48207054890669575E+02  0.32007053976354997E-01  0.64903002906429128E-01
  0.12985938601420488E+02  0.21017784853200744E-01  0.16570648805461288E-01
  0.17096780928957720E+02  0.15732878965571323E-01  0.94652894496029798E-02
  0.34718168946357217E+02  0.58201729182048431E-02  0.94592546619256188E-02
  0.41587441858812703E+02  0.13319009594354735E-01  0.81102239267141357E-02
  0.46143994032122379E+02  0.37715989079581264E-01  0.46699241260599551E-01
  0.48079262675264360E+02  0.43924115327622623E-01  0.82132904945542831E-01
  0.11643874506840298E+02  0.13793310585598552E-01  0.12170355093750808E-01
  0.13019926711264315E+02  0.20925277093908783E-01  0.17034495386848768E-01
  0.36156732547294489E+02  0.28196864692047185E-02  0.71419523907720554E-02
  0.43384270863629418E+02  0.11730364599826851E-01  0.76041707683509449E-02
  0.46735062891975367E+02  0.37620770923114603E-01  0.42395536272695364E-01
  0.47491790850054393E+02  0.26227901098215472E-01  0.37067780914275587E-01
  0.14446146462356891E+02  0.35437695999260999E-01  0.21607888060617614E-01
  0.14446147122887092E+02  0.35883589162331503E-01  0.21858708116694842E-01
  0.40093010048068102E+02  0.22920062776502240E-15  0.19522599022341901E-01
  0.43276230664577277E+02  0.32178222073445444E-01  0.26531223215033889E-15
  0.45558795786956779E+02  0.66759513574359150E-01  0.10310613518647996E+00
  0.45558795996385889E+02  0.66784776921016364E-01  0.10309951466161475E+00
  0.14375074760437746E+02  0.43901835325112284E-01  0.26655096862692910E-01
  0.15493398178170867E+02  0.22526987391316127E-01  0.12876385462546857E-01
  0.38205559201117836E+02  0.23457737883199048E-02  0.68387128730148421E-02
  0.43481813298653790E+02  0.16269064477178408E-01  0.38013894063235504E-02
  0.45477694863350123E+02  0.78059448456101493E-01  0.12257555294775957E+00
  0.46120717902889275E+02  0.35101330749178143E-01  0.51157357942078908E-01
  0.14206006563580507E+02  0.40942001575597367E-01  0.25646092446584005E-01
  0.17841375981122045E+02  0.15621335389774359E-01  0.77573667504704400E-02
  0.34740691135005733E+02  0.41480663393398077E-02  0.11769209136085488E-01
  0.43015864096464377E+02  0.14407125663572150E-01  0.65701629596846339E-02
  0.45420073536942702E+02  0.87954021262030904E-01  0.13742410058631485E+00
  0.47271478956675395E+02  0.21342243999377949E-01  0.34712976564182763E-01
  0.13859604736626290E+02  0.32035811887215215E-01  0.21826410990454764E-01
  0.19237278243811879E+02  0.14347430356263693E-01  0.71075860058009439E-02
  0.32351421196323969E+02  0.57889072522708867E-02  0.95284215147862818E-02
  0.42548978541513705E+02  0.11573356303237277E-01  0.66147773031775279E-02
  0.45674728909944186E+02  0.47229213645512830E-01  0.66005923290782642E-01
  0.47963025459448161E+02  0.53479106334698573E-01  0.11207906228759111E+00
  0.13021848395522744E+02  0.21113931260983012E-01  0.16507170762721710E-01
  0.16999387247108064E+02  0.15746613316392197E-01  0.95872892617141370E-02
  0.33823650332038866E+02  0.12256901062685618E-01  0.17567090668323977E-01
  0.42560361338113303E+02  0.11209768998495890E-01  0.69326733687282973E-02
  0.46238407385015670E+02  0.35140386219007606E-01  0.43514578912313064E-01
  0.47913781550918081E+02  0.46863587249494097E-01  0.90682852932272878E-01
  0.11759091855326256E+02  0.14241676232686721E-01  0.12477202004824618E-01
  0.13063196473130198E+02  0.20838528564678677E-01  0.17026609281922331E-01
  0.37149236590493103E+02  0.20099819859987849E-02  0.50376534599378834E-02
  0.42748253941092813E+02  0.15381746410107377E-01  0.87113871633580937E-02
  0.46806407863055554E+02  0.35489254450793171E-01  0.40299161905568689E-01
  0.47382687451449492E+02  0.25790280895902077E-01  0.35220335038382670E-01
  0.13896400939617324E+02  0.33415096340304686E-01  0.21218985336741016E-01
  0.15002775802752620E+02  0.24345375838782848E-01  0.14121656168087452E-01
  0.33280724402674153E+02  0.68756959680542386E-02  0.13022488513226101E-01
  0.45031014241933299E+02  0.12567522864798560E-01  0.13857963918311879E-01
  0.45300757691101808E+02  0.60129099915809135E-01  0.94861287064787803E-01
  0.47771157572543814E+02  0.46099597098421589E-01  0.54901720176700905E-01
  0.13498982970058407E+02  0.25225042180242976E-01  0.17332546210687503E-01
  0.16896685938516747E+02  0.16734669916317953E-01  0.89636913633821709E-02
  0.30001271941608870E+02  0.37674418386120455E-02  0.55493554467133423E-02
  0.44770723645725681E+02  0.12176703660772380E-01  0.11547339208937276E-01
  0.45544709414995822E+02  0.73701232535196351E-01  0.10801730088912603E+00
  0.48460264366959670E+02  0.19468647667081080E-01  0.28326682743373938E-01
  0.12675450552916640E+02  0.19624052646299080E-01  0.15343052293336577E-01
  0.16174890010253868E+02  0.16811914448171913E-01  0.10859097270609063E-01
  0.30037190802420241E+02  0.41419466897791059E-02  0.51588357729257534E-02
  0.44903775856563996E+02  0.13749338985856497E-01  0.12089315733650520E-01