  0.00000000000000000E+00  0.00000000000000000E+00  0.00000000000000000E+00
  0.00000000000000000E+00  0.00000000000000000E+00  0.00000000000000000E+00
  0.00000000000000000E+00  0.00000000000000000E+00  0.00000000000000000E+00
  0.48535018054055591E+02  0.23098241570594671E-01  0.27174552092421016E-01
  0.48535018054055598E+02  0.23098241569655120E-01  0.27174552092078700E-01
  0.48535018054079629E+02  0.22937394200881152E-01  0.27115940844869832E-01
  0.38324487420271769E+01  0.41109636184865858E-03  0.46251362280977278E-03
  0.38324493871153362E+01  0.47282383144325483E-03  0.53266445716004666E-03
  0.82580303336754159E+01  0.24026323954864592E-02  0.26393671581154288E-02
  0.48293530820623950E+02  0.32931740269504219E-01  0.41342305142937942E-01
  0.48293530871837937E+02  0.31897881090728691E-01  0.40298914841437890E-01
  0.51941099849072259E+02  0.61637464829902948E-02  0.52425166668193047E-02
  0.69989750982011270E+01  0.16030954246668142E-02  0.16995408448640492E-02
  0.69989754782316185E+01  0.16276331315719977E-02  0.17250898722927391E-02
  0.16168688269578588E+02  0.14820243855399547E-01  0.12480030648475460E-01
  0.47700948856589662E+02  0.36904875370570848E-01  0.48928672571393245E-01
  0.47700948912371793E+02  0.37324888984187593E-01  0.49641021082343029E-01
  0.52323487373047215E+02  0.10131796312227418E-01  0.85049093161380547E-02
  0.91147157948533533E+01  0.36480830456698558E-02  0.35890735421722740E-02
  0.91147164328113668E+01  0.35710539347875961E-02  0.35171975603833444E-02
  0.23522228155467712E+02  0.15524220007994102E-02  0.18337204521232070E-02
  0.47115154526721803E+02  0.25513971496562867E-01  0.29445385673097429E-01
  0.47115154650116693E+02  0.25711784793503573E-01  0.29277813441599410E-01
  0.51291613371283511E+02  0.42834316108780312E-02  0.37612028526039869E-02
  0.10274990032262876E+02  0.75221607901199417E-02  0.70211229169367100E-02
  0.10274990940559883E+02  0.69263591116808807E-02  0.64656421770400690E-02
  0.30130269146926153E+02  0.41971474679355983E-02  0.52026910626090652E-02
  0.46874499111284543E+02  0.46105282994054891E-01  0.50975055256672369E-01
  0.46874499310363063E+02  0.45786372453444885E-01  0.50647743389822746E-01
  0.48648901231483933E+02  0.18541055722428670E-01  0.22183486363628022E-01
  0.10866886786904860E+02  0.11123631386135594E-01  0.10199937872832189E-01
  0.10866887082858085E+02  0.11826103939131994E-01  0.10846717591682585E-01
  0.35663160436804333E+02  0.34965419331598074E-02  0.74288523153857736E-02
  0.45240844695612651E+02  0.45938571369724977E-01  0.47250225215033519E-01
  0.46955035744746766E+02  0.38010813583115262E-01  0.42693693391631378E-01
  0.46955035813261837E+02  0.36071657950454826E-01  0.40782125293147467E-01
  0.11071057503794981E+02  0.16973387458030152E-01  0.15615490533076813E-01
  0.11071058676296897E+02  0.16809002292193023E-01  0.15459333105604078E-01
  0.38860602648041429E+02  0.81015122272424505E-02  0.10997912638503261E-01
  0.42728620557214363E+02  0.17524379584303924E-01  0.84640194532159835E-02
  0.47041787648880003E+02  0.33213652630920174E-01  0.37740662638141562E-01
  0.47041787924844719E+02  0.33377885748629980E-01  0.38252176280394914E-01
  0.10866886786904850E+02  0.11123631386135544E-01  0.10199937872832143E-01
  0.10866887082858034E+02  0.11826103939131694E-01  0.10846717591682304E-01
  0.35663160436804333E+02  0.34965419331598083E-02  0.74288523153857788E-02
  0.45240844695612665E+02  0.45938571369733332E-01  0.47250225215042567E-01
  0.46955035744746780E+02  0.38010813583114478E-01  0.42693693391630712E-01
  0.46955035813261837E+02  0.36071657950454958E-01  0.40782125293147502E-01
  0.10274990032262838E+02  0.75221607901198272E-02  0.70211229169366233E-02
  0.10274990940559853E+02  0.69263591116807887E-02  0.64656421770399857E-02
  0.30130269146926167E+02  0.41971474679355957E-02  0.52026910626090756E-02
  0.46874499111284543E+02  0.46105282994054975E-01  0.50975055256672307E-01
  0.46874499310363070E+02  0.45786372453444857E-01  0.50647743389822746E-01
  0.48648901231483919E+02  0.18541055722429211E-01  0.22183486363628740E-01
  0.91147157948533195E+01  0.36480830456698116E-02  0.35890735421722293E-02
  0.91147164328113845E+01  0.35710539347876134E-02  0.35171975603833692E-02
  0.23522228155467715E+02  0.15524220007994097E-02  0.18337204521232055E-02
  0.47115154526721803E+02  0.25513971496562825E-01  0.29445385673097350E-01
  0.47115154650116679E+02  0.25711784793503941E-01  0.29277813441599670E-01
  0.51291613371283503E+02  0.42834316108780121E-02  0.37612028526039726E-02
  0.69989750982011190E+01  0.16030954246668077E-02  0.16995408448640416E-02
  0.69989754782315678E+01  0.16276331315719561E-02  0.17250898722926959E-02
  0.16168688269578610E+02  0.14820243855399413E-01  0.12480030648475379E-01
  0.47700948856589662E+02  0.36904875370570842E-01  0.48928672571393154E-01
  0.47700948912371793E+02  0.37324888984187565E-01  0.49641021082343036E-01
  0.52323487373047215E+02  0.10131796312227425E-01  0.85049093161380530E-02
  0.38324487420272195E+01  0.41109636184866627E-03  0.46251362280978146E-03
  0.38324493871154632E+01  0.47282383144327717E-03  0.53266445716007214E-03
  0.82580303336754088E+01  0.24026323954864548E-02  0.26393671581154215E-02
  0.48293530820623950E+02  0.32931740269504281E-01  0.41342305142937935E-01
  0.48293530871837945E+02  0.31897881090727914E-01  0.40298914841436946E-01
  0.51941099849072252E+02  0.61637464829903139E-02  0.52425166668193177E-02
  0.54742587906376059E+01  0.69117419004545422E-03  0.76059973996126754E-03
  0.54742596315591268E+01  0.70205352073018695E-03  0.77294430651138313E-03
  0.81910958308978508E+01  0.23351863779700051E-02  0.25949128080812651E-02
  0.48144907262343956E+02  0.44427794203429342E-01  0.57751740876417920E-01
  0.48144907357976081E+02  0.42873984139015761E-01  0.56897524767613658E-01
  0.52138460820021812E+02  0.11495405202621491E-01  0.96650875140519323E-02
  0.78135582927234273E+01  0.21935068526509030E-02  0.23011526556980196E-02
  0.79870015467450326E+01  0.22811522802556011E-02  0.23483189281381777E-02
  0.14302415359294104E+02  0.31411315253629703E-01  0.27545046376626366E-01
  0.47538771504406135E+02  0.28385502584239261E-01  0.34688398650236013E-01
  0.47726230372391008E+02  0.39019818569522004E-01  0.52792416743941563E-01
  0.52401176670264832E+02  0.84016195732161941E-02  0.69810296729747260E-02
  0.98175626539456271E+01  0.48640652172856676E-02  0.45733991227375950E-02
  0.10178389188566584E+02  0.68459733047601841E-02  0.65851146465100820E-02
  0.21124192175035930E+02  0.46276891680543065E-02  0.38049620654581054E-02
  0.46862594130226448E+02  0.44621321938425447E-01  0.49580291828903812E-01
  0.47294796814066956E+02  0.26026956754165931E-01  0.30328782077190548E-01
  0.51550258091386908E+02  0.51105858676704936E-02  0.44729279739773630E-02
  0.10871453935243743E+02  0.11489056440579314E-01  0.10224315983888009E-01
  0.11820145649004782E+02  0.14456507114976045E-01  0.12812458921962529E-01
  0.27534117611207076E+02  0.28013066287397737E-02  0.32872005779053027E-02
  0.46584110470124656E+02  0.38285476896588608E-01  0.43774542374741925E-01
  0.46793172873016303E+02  0.37425231789156035E-01  0.39179636925923064E-01
  0.49395169635011079E+02  0.71339397172610289E-02  0.80547448710332117E-02
  0.11475638133051241E+02  0.12896273526845147E-01  0.11290983510393451E-01
  0.12691506924801510E+02  0.19187984290502641E-01  0.16029614580868486E-01
  0.33146357773584590E+02  0.77041916270597435E-02  0.10536483722528110E-01
  0.45356030385928712E+02  0.90496464765550663E-01  0.92847484228571753E-01
  0.46696104074027524E+02  0.38070892456828299E-01  0.43397610863716088E-01
  0.47579855212068473E+02  0.26862206022997506E-01  0.39769263873280412E-01
  0.11759091855326222E+02  0.14241676232686596E-01  0.12477202004824502E-01
  0.13063196473130128E+02  0.20838528564678688E-01  0.17026609281922449E-01
  0.37149236590493118E+02  0.20099819859987888E-02  0.50376534599378348E-02
  0.42748253941092827E+02  0.15381746410107559E-01  0.87113871633581891E-02
  0.46806407863055576E+02  0.35489254450792949E-01  0.40299161905568370E-01
  0.47382687451449463E+02  0.25790280895901827E-01  0.35220335038382115E-01
  0.11643874506840261E+02  0.13793310585598359E-01  0.12170355093750680E-01
  0.13019926711264283E+02  0.20925277093908786E-01  0.17034495386848765E-01
  0.36156732547294503E+02  0.28196864692047068E-02  0.71419523907720293E-02
  0.43384270863629418E+02  0.11730364599826832E-01  0.76041707683509527E-02
  0.46735062891975396E+02  0.37620770923113882E-01  0.42395536272694642E-01
  0.47491790850054386E+02  0.26227901098215552E-01  0.37067780914275560E-01
  0.11134431471780452E+02  0.10767239219620851E-01  0.97198205480943049E-02
  0.12641302174893605E+02  0.18889538896107397E-01  0.15508320535609507E-01
  0.31412178374711736E+02  0.53299063513379975E-02  0.66849057761137242E-02
  0.45756787167665401E+02  0.45985661309940959E-01  0.46960846407788415E-01
  0.46688848677188979E+02  0.38572458638607941E-01  0.43021497287460381E-01
  0.48107160082757474E+02  0.42456019942913981E-01  0.67609597316080294E-01
  0.10088791140048205E+02  0.61014682301200390E-02  0.58219964293767905E-02
  0.11953424108779991E+02  0.14691286018313836E-01  0.12605858950454475E-01
  0.25421850472897372E+02  0.20729356566576160E-02  0.24055923289383000E-02
  0.46753470339281073E+02  0.38440232944207633E-01  0.41177487618819071E-01
  0.46921305171877279E+02  0.37878983376256919E-01  0.41659533852244399E-01
  0.50089454803682742E+02  0.52041431116759667E-02  0.51297582161844556E-02
  0.81550315925130334E+01  0.23720663071787832E-02  0.24593529373857248E-02
  0.10581468457514873E+02  0.74409808825964862E-02  0.69599336368851407E-02
  0.18830424380988113E+02  0.11135739950906453E-01  0.90042796593508678E-02
  0.47414535473884570E+02  0.28138744998954197E-01  0.33469985708941705E-01
  0.47429217598610009E+02  0.28435123027976225E-01  0.33132930386577261E-01
  0.51714608199776201E+02  0.56775568418415429E-02  0.49688319866773240E-02
  0.54809716941640430E+01  0.69280495959572828E-03  0.76245481590915326E-03
  0.78965779855936811E+01  0.22301173862826489E-02  0.23423259203618615E-02
  0.12436554751104818E+02  0.15432119691903013E-01  0.15158528008926076E-01
  0.47976741846102172E+02  0.69054440193635075E-01  0.97148412307207013E-01
  0.47980622139855683E+02  0.71226384330976042E-01  0.97496369662080362E-01
  0.52162901018248299E+02  0.15460572995826819E-01  0.13109915303469055E-01
  0.98279070857552462E+01  0.49072366219038320E-02  0.46000580342108605E-02
  0.98279088372403596E+01  0.49343770917910628E-02  0.46224356424543114E-02
  0.16189422902010442E+02  0.14353822130172137E-01  0.12471388279119906E-01
  0.46919363714692267E+02  0.37539154016524065E-01  0.42232796834336325E-01
  0.46919364081581563E+02  0.37592616833395140E-01  0.42364359822825652E-01
  0.52776881749103062E+02  0.58997059421930951E-02  0.46687713496352916E-02
  0.11242132235326578E+02  0.11440183803808963E-01  0.96873904780831570E-02
  0.11935391035284558E+02  0.14849531258104795E-01  0.12445777731209858E-01
  0.20750381522546647E+02  0.13896553558981660E-01  0.10801734090406027E-01
  0.46222979003117032E+02  0.35548411469398696E-01  0.43511099667741499E-01
  0.46439535965182138E+02  0.39070083816744511E-01  0.45792527902900830E-01
  0.52037064041203038E+02  0.59350126290156017E-02  0.49010321310923883E-02
  0.12093724520606678E+02  0.15539144602144601E-01  0.12370856830284016E-01
  0.14389102849050584E+02  0.40925062345415819E-01  0.28165452650946134E-01
  0.25503147305251563E+02  0.20633795356523898E-02  0.24894180299002691E-02
  0.45958397300893829E+02  0.43954578871145678E-01  0.56215999044022510E-01
  0.46138636739901280E+02  0.38660425593492316E-01  0.45068534662110478E-01
  0.50033262119470322E+02  0.52336745938617911E-02  0.51353219329890610E-02
  0.12675450552916717E+02  0.19624052646299770E-01  0.15343052293337059E-01
  0.16174890010253851E+02  0.16811914448171855E-01  0.10859097270609071E-01
  0.30037190802420241E+02  0.41419466897791093E-02  0.51588357729257526E-02
  0.44903775856563996E+02  0.13749338985856487E-01  0.12089315733650552E-01
  0.46115493200934445E+02  0.38571705336771046E-01  0.48865491475026508E-01
  0.48300888585750208E+02  0.27588720717325092E-01  0.45757143186198244E-01
  0.13021848395522722E+02  0.21113931260983026E-01  0.16507170762721759E-01
  0.16999387247108039E+02  0.15746613316392228E-01  0.95872892617141700E-02
  0.33823650332038845E+02  0.12256901062685756E-01  0.17567090668324108E-01
  0.42560361338113339E+02  0.11209768998495972E-01  0.69326733687283823E-02
  0.46238407385015670E+02  0.35140386219007565E-01  0.43514578912312980E-01
  0.47913781550918074E+02  0.46863587249492772E-01  0.90682852932270477E-01
  0.12985938601420484E+02  0.21017784853200768E-01  0.16570648805461267E-01
  0.17096780928957688E+02  0.15732878965571337E-01  0.94652894496030111E-02
  0.34718168946357238E+02  0.58201729182048127E-02  0.94592546619255268E-02
  0.41587441858812710E+02  0.13319009594354706E-01  0.81102239267141669E-02
  0.46143994032122372E+02  0.37715989079581576E-01  0.46699241260600051E-01
  0.48079262675264367E+02  0.43924115327621090E-01  0.82132904945539389E-01
  0.12595324678545079E+02  0.18573584599687460E-01  0.15114659235074679E-01
  0.16789613894288781E+02  0.15978598185330647E-01  0.95807036238212857E-02
  0.31465624440976118E+02  0.55177016700442821E-02  0.66525130233109032E-02
  0.43135630189629161E+02  0.11466223377659361E-01  0.85638853379271952E-02
  0.46109586471749729E+02  0.39619201739218117E-01  0.48398329966106941E-01
  0.48506681895644824E+02  0.18221975541873374E-01  0.31019454610464361E-01
  0.11789090140400500E+02  0.14329836436936257E-01  0.12522825544085459E-01
  0.16238521777593320E+02  0.16648287641682816E-01  0.10441850160351226E-01
  0.26657421284402076E+02  0.25261195686192184E-02  0.29023242343374656E-02
  0.45108290216034717E+02  0.18480434257157802E-01  0.19590771685701180E-01
  0.46392183384612430E+02  0.38124585377158272E-01  0.43810442628641741E-01
  0.49224866978444936E+02  0.77557295446593795E-02  0.10886080770038544E-01
  0.10241660695658338E+02  0.68855279702374171E-02  0.65732448791902100E-02
  0.14507078039720724E+02  0.23119730320435024E-01  0.16436022843875991E-01
  0.22061645231755236E+02  0.12798541998596286E-02  0.14872566245870812E-02
  0.46774738100829886E+02  0.38013187055407745E-01  0.39932633782384305E-01
  0.46916284394836097E+02  0.38527556807713866E-01  0.42137509517524707E-01
  0.50305760797671972E+02  0.51490329965071810E-02  0.53349063702976558E-02
  0.81550315925130672E+01  0.23720663071788071E-02  0.24593529373857425E-02
  0.10581468457514864E+02  0.74409808825965209E-02  0.69599336368851685E-02
  0.18830424380988067E+02  0.11135739950906467E-01  0.90042796593508712E-02
  0.47414535473884577E+02  0.28138744998954170E-01  0.33469985708942024E-01
  0.47429217598609995E+02  0.28435123027976090E-01  0.33132930386576796E-01
  0.51714608199776187E+02  0.56775568418414865E-02  0.49688319866772693E-02
  0.12314726426021295E+02  0.16906509575751325E-01  0.12785846403132914E-01
  0.12314727152732049E+02  0.16508077435133963E-01  0.12472952106666681E-01
  0.23790232727874614E+02  0.15372438480394498E-02  0.19627760039325733E-02
  0.45566193005984537E+02  0.67078666407406895E-01  0.94850863076449771E-01
  0.45566193202402580E+02  0.67008480029905712E-01  0.94780842818822347E-01
  0.51913922016789954E+02  0.66067109005204690E-02  0.52152969362149210E-02
  0.12968300280031020E+02  0.22062588035514714E-01  0.15620648152150876E-01
  0.14045320527656445E+02  0.32985519823623057E-01  0.21153021484576720E-01
  0.27255534895847056E+02  0.25095051735698122E-02  0.33675786902559010E-02
  0.45350339588486108E+02  0.73286040836624058E-01  0.11072641708806517E+00
  0.45355390291086529E+02  0.75541475870537833E-01  0.11089817048654986E+00
  0.50367863074219557E+02  0.57164055138796722E-02  0.48753713755093960E-02
  0.13498982970058426E+02  0.25225042180243330E-01  0.17332546210687732E-01
  0.16896685938516718E+02  0.16734669916317918E-01  0.89636913633822021E-02
  0.30001271941608856E+02  0.37674418386120447E-02  0.55493554467133267E-02
  0.44770723645725674E+02  0.12176703660772300E-01  0.11547339208937232E-01
  0.45544709414995808E+02  0.73701232535200834E-01  0.10801730088913405E+00
  0.48460264366959684E+02  0.19468647667080834E-01  0.28326682743373584E-01
  0.13859604736626260E+02  0.32035811887214820E-01  0.21826410990454612E-01
  0.19237278243811865E+02  0.14347430356263622E-01  0.71075860058009317E-02
  0.32351421196323969E+02  0.57889072522708963E-02  0.95284215147862453E-02
  0.42548978541513712E+02  0.11573356303237279E-01  0.66147773031775426E-02
  0.45674728909944179E+02  0.47229213645513836E-01  0.66005923290784155E-01
  0.47963025459448161E+02  0.53479106334697948E-01  0.11207906228758997E+00
  0.13857142388967862E+02  0.31909819545180941E-01  0.21882132667424340E-01
  0.20102731247590821E+02  0.17940789437350745E-01  0.82976039859830788E-02
  0.33836557569716057E+02  0.11238472876855317E-01  0.18724646679942308E-01
  0.40419456295243045E+02  0.10315552709783904E-01  0.55456531851383875E-02
  0.45541621028745311E+02  0.75533631195287929E-01  0.10817075505745352E+00
  0.48207054890669568E+02  0.32007053976355296E-01  0.64903002906429863E-01
  0.13560481211509851E+02  0.25661401232311622E-01  0.18302527265239080E-01
  0.19881229167426479E+02  0.17438443148371733E-01  0.80475966274825960E-02
  0.32073862556365491E+02  0.61557980920425746E-02  0.81713205183342637E-02
  0.40879624881332184E+02  0.11871607113699436E-01  0.78454679687787500E-02
  0.45473317990126105E+02  0.82462086954100525E-01  0.11774196659994354E+00
  0.48600630997966526E+02  0.15646129427860467E-01  0.29807094630887331E-01
  0.12983715828954736E+02  0.21103776861321807E-01  0.16492421981145450E-01
  0.18971836939805748E+02  0.13759726060932519E-01  0.70676583514903812E-02
  0.28762466423338925E+02  0.34326787642528418E-02  0.41152194328534031E-02
  0.42748298799928847E+02  0.13514945548904068E-01  0.10024312287824966E-01
  0.45791939393112074E+02  0.40447126748271126E-01  0.51285724662571780E-01
  0.48978373237939742E+02  0.94087584065941279E-02  0.15465504703215324E-01
  0.11789090140400498E+02  0.14329836436936283E-01  0.12522825544085462E-01
  0.16238521777593306E+02  0.16648287641682930E-01  0.10441850160351296E-01
  0.26657421284402073E+02  0.25261195686192206E-02  0.29023242343374669E-02
  0.45108290216034725E+02  0.18480434257159568E-01  0.19590771685703352E-01
  0.46392183384612437E+02  0.38124585377158390E-01  0.43810442628641824E-01
  0.49224866978444936E+02  0.77557295446593743E-02  0.10886080770038527E-01
  0.10088791140048244E+02  0.61014682301202732E-02  0.58219964293770039E-02
  0.11953424108779997E+02  0.14691286018313867E-01  0.12605858950454475E-01
  0.25421850472897376E+02  0.20729356566576186E-02  0.24055923289383078E-02
  0.46753470339281087E+02  0.38440232944207169E-01  0.41177487618818648E-01
  0.46921305171877258E+02  0.37878983376258710E-01  0.41659533852246335E-01
  0.50089454803682742E+02  0.52041431116759632E-02  0.51297582161844435E-02
  0.13467297243751563E+02  0.25479240469662941E-01  0.16596743888893109E-01
  0.13467298450522978E+02  0.25353739001647200E-01  0.16564501243933067E-01
  0.30681251044990386E+02  0.40603628283228509E-02  0.62019212195314807E-02
  0.45138279707827415E+02  0.23274520013094300E-01  0.34761680774157276E-01
  0.45138280067858261E+02  0.22338687167541765E-01  0.33775678785873682E-01
  0.49530251562532229E+02  0.68214605247149005E-02  0.56123197175168291E-02
  0.13896400939617308E+02  0.33415096340304672E-01  0.21218985336741009E-01
  0.15002775802752593E+02  0.24345375838782917E-01  0.14121656168087506E-01
  0.33280724402674139E+02  0.68756959680542108E-02  0.13022488513225964E-01
  0.45031014241933306E+02  0.12567522864798588E-01  0.13857963918312073E-01
  0.45300757691101801E+02  0.60129099915807276E-01  0.94861287064783695E-01
  0.47771157572543807E+02  0.46099597098420757E-01  0.54901720176700176E-01
  0.14206006563580541E+02  0.40942001575597166E-01  0.25646092446583800E-01
  0.17841375981122020E+02  0.15621335389774381E-01  0.77573667504704609E-02
  0.34740691135005726E+02  0.41480663393398268E-02  0.11769209136085521E-01
  0.43015864096464398E+02  0.14407125663572176E-01  0.65701629596846452E-02
  0.45420073536942731E+02  0.87954021262031543E-01  0.13742410058631455E+00
  0.47271478956675388E+02  0.21342243999377855E-01  0.34712976564182478E-01
  0.14210017313202135E+02  0.40819317379898350E-01  0.25680665329876361E-01
  0.20186293823012857E+02  0.18690186481969295E-01  0.78462306385079107E-02
  0.35643190251155247E+02  0.22205214266588294E-02  0.10232552645266388E-01
  0.39882734569809166E+02  0.10121641179387226E-01  0.30020348937031716E-02
  0.45280968849792941E+02  0.54687653738806234E-01  0.84550610155463973E-01
  0.47791223887788853E+02  0.34576805748944159E-01  0.75720457450837095E-01
  0.13984797399401488E+02  0.32720090308863990E-01  0.21433052929642121E-01
  0.20879765519617482E+02  0.21233975712547079E-01  0.82508095773626850E-02
  0.34511841927126603E+02  0.52536265639083765E-02  0.11842414412984391E-01
  0.39134564508569895E+02  0.92517380501292001E-02  0.48479383156803113E-02
  0.45177730758903209E+02  0.27032423081028618E-01  0.39225277996382812E-01
  0.48308175511683721E+02  0.23724250759753009E-01  0.48911075612784655E-01
  0.13560481211509826E+02  0.25661401232311185E-01  0.18302527265238851E-01
  0.19881229167426497E+02  0.17438443148371816E-01  0.80475966274826324E-02
  0.32073862556365484E+02  0.61557980920425642E-02  0.81713205183342602E-02
  0.40879624881332184E+02  0.11871607113699466E-01  0.78454679687787413E-02
  0.45473317990126155E+02  0.82462086954098679E-01  0.11774196659993964E+00
  0.48600630997966526E+02  0.15646129427860471E-01  0.29807094630887349E-01
  0.12595324678545122E+02  0.18573584599687880E-01  0.15114659235074988E-01
  0.16789613894288792E+02  0.15978598185330723E-01  0.95807036238212840E-02
  0.31465624440976107E+02  0.55177016700442708E-02  0.66525130233108676E-02
  0.43135630189629161E+02  0.11466223377659382E-01  0.85638853379271952E-02
  0.46109586471749722E+02  0.39619201739218485E-01  0.48398329966107573E-01
  0.48506681895644839E+02  0.18221975541873915E-01  0.31019454610465166E-01
  0.11134431471780466E+02  0.10767239219620564E-01  0.97198205480940030E-02
  0.12641302174893580E+02  0.18889538896107196E-01  0.15508320535609289E-01
  0.31412178374711740E+02  0.53299063513380061E-02  0.66849057761137424E-02
  0.45756787167665408E+02  0.45985661309940605E-01  0.46960846407787887E-01
  0.46688848677188957E+02  0.38572458638608156E-01  0.43021497287460582E-01
  0.48107160082757495E+02  0.42456019942911399E-01  0.67609597316076200E-01
  0.14177947299610398E+02  0.41687417222920971E-01  0.25546164590679619E-01
  0.14177948417950734E+02  0.40667363432555288E-01  0.24933437734617977E-01
  0.36472826475779740E+02  0.18412165036296904E-02  0.85650322818599522E-02
  0.45386937331703237E+02  0.78311162387556782E-01  0.12482353508758123E+00
  0.45386937681032677E+02  0.78614776988659693E-01  0.12525907384100551E+00
  0.46179452937403937E+02  0.50137140533168666E-01  0.29173083592180262E-01
  0.14375074760437737E+02  0.43901835325112597E-01  0.26655096862693101E-01
  0.15493398178170844E+02  0.22526987391316283E-01  0.12876385462546944E-01
  0.38205559201117815E+02  0.23457737883198649E-02  0.68387128730147779E-02
  0.43481813298653790E+02  0.16269064477178369E-01  0.38013894063235816E-02
  0.45477694863350123E+02  0.78059448456101035E-01  0.12257555294775770E+00
  0.46120717902889268E+02  0.35101330749178393E-01  0.51157357942079380E-01
  0.14371863447722708E+02  0.43998091096581204E-01  0.26797417653628867E-01
  0.18074728855073293E+02  0.15215389696605963E-01  0.75075817549823971E-02
  0.38070421163412846E+02  0.24915766116053226E-03  0.82220190356897312E-02
  0.40732612386564711E+02  0.21708922735684609E-01  0.44483658177521280E-03
  0.45369509358805118E+02  0.74462108775791444E-01  0.11746947563891606E+00
  0.46975722513097750E+02  0.28806512705252495E-01  0.47132561013698775E-01
  0.14210017313202112E+02  0.40819317379898620E-01  0.25680665329876430E-01
  0.20186293823012843E+02  0.18690186481969247E-01  0.78462306385078829E-02
  0.35643190251155239E+02  0.22205214266588277E-02  0.10232552645266776E-01
  0.39882734569809173E+02  0.10121641179387261E-01  0.30020348937031555E-02
  0.45280968849792920E+02  0.54687653738799288E-01  0.84550610155453121E-01
  0.47791223887788838E+02  0.34576805748942965E-01  0.75720457450834319E-01
  0.13857142388967866E+02  0.31909819545181017E-01  0.21882132667424403E-01
  0.20102731247590842E+02  0.17940789437350765E-01  0.82976039859830840E-02
  0.33836557569716057E+02  0.11238472876855280E-01  0.18724646679942253E-01
  0.40419456295243037E+02  0.10315552709783841E-01  0.55456531851383571E-02
  0.45541621028745311E+02  0.75533631195288053E-01  0.10817075505745345E+00
  0.48207054890669575E+02  0.32007053976355025E-01  0.64903002906428975E-01
  0.12985938601420486E+02  0.21017784853200761E-01  0.16570648805461295E-01
  0.17096780928957688E+02  0.15732878965571361E-01  0.94652894496030163E-02
  0.34718168946357231E+02  0.58201729182048014E-02  0.94592546619255945E-02
  0.41587441858812703E+02  0.13319009594354754E-01  0.81102239267141305E-02
  0.46143994032122350E+02  0.37715989079582568E-01  0.46699241260601099E-01
  0.48079262675264360E+02  0.43924115327622894E-01  0.82132904945543428E-01
  0.11643874506840305E+02  0.13793310585598564E-01  0.12170355093750826E-01
  0.13019926711264317E+02  0.20925277093908765E-01  0.17034495386848748E-01
  0.36156732547294482E+02  0.28196864692047251E-02  0.71419523907720441E-02
  0.43384270863629403E+02  0.11730364599826884E-01  0.76041707683509856E-02
  0.46735062891975389E+02  0.37620770923114145E-01  0.42395536272694760E-01
  0.47491790850054393E+02  0.26227901098215583E-01  0.37067780914275747E-01
  0.14446146462356918E+02  0.35437695999256127E-01  0.21607888060614734E-01
  0.14446147122887098E+02  0.35883589162330504E-01  0.21858708116694294E-01
  0.40093010048068102E+02  0.22920062776502289E-15  0.19522599022341901E-01
  0.43276230664577263E+02  0.32178222073445555E-01  0.26531223199232024E-15
  0.45558795786956779E+02  0.66759513574359164E-01  0.10310613518648115E+00
  0.45558795996385896E+02  0.66784776921014088E-01  0.10309951466161252E+00
  0.14375074760437734E+02  0.43901835325112798E-01  0.26655096862693278E-01
  0.15493398178170857E+02  0.22526987391316228E-01  0.12876385462546904E-01
  0.38205559201117836E+02  0.23457737883199122E-02  0.68387128730148291E-02
  0.43481813298653769E+02  0.16269064477178515E-01  0.38013894063235990E-02
  0.45477694863350116E+02  0.78059448456101230E-01  0.12257555294775847E+00
  0.46120717902889268E+02  0.35101330749178435E-01  0.51157357942079471E-01
  0.14206006563580495E+02  0.40942001575597339E-01  0.25646092446584046E-01
  0.17841375981122031E+02  0.15621335389774385E-01  0.77573667504704730E-02
  0.34740691135005740E+02  0.41480663393397947E-02  0.11769209136085489E-01
  0.43015864096464384E+02  0.14407125663572187E-01  0.65701629596846313E-02
  0.45420073536942702E+02  0.87954021262030960E-01  0.13742410058631324E+00
  0.47271478956675395E+02  0.21342243999377879E-01  0.34712976564182679E-01
  0.13859604736626267E+02  0.32035811887214979E-01  0.21826410990454629E-01
  0.19237278243811886E+02  0.14347430356263723E-01  0.71075860058009603E-02
  0.32351421196323969E+02  0.57889072522708989E-02  0.95284215147862852E-02
  0.42548978541513712E+02  0.11573356303237322E-01  0.66147773031775435E-02
  0.45674728909944179E+02  0.47229213645513857E-01  0.66005923290784377E-01
  0.47963025459448161E+02  0.53479106334698510E-01  0.11207906228759061E+00
  0.13021848395522710E+02  0.21113931260982960E-01  0.16507170762721731E-01
  0.16999387247108050E+02  0.15746613316392193E-01  0.95872892617141631E-02
  0.33823650332038859E+02  0.12256901062685658E-01  0.17567090668324032E-01
  0.42560361338113289E+02  0.11209768998495824E-01  0.69326733687282609E-02
  0.46238407385015662E+02  0.35140386219007648E-01  0.43514578912313168E-01
  0.47913781550918081E+02  0.46863587249493903E-01  0.90682852932272837E-01
  0.11759091855326236E+02  0.14241676232686630E-01  0.12477202004824575E-01
  0.13063196473130152E+02  0.20838528564678702E-01  0.17026609281922407E-01
  0.37149236590493103E+02  0.20099819859987862E-02  0.50376534599378738E-02
  0.42748253941092798E+02  0.15381746410108381E-01  0.87113871633587112E-02
  0.46806407863055540E+02  0.35489254450793241E-01  0.40299161905568724E-01
  0.47382687451449478E+02  0.25790280895901917E-01  0.35220335038382324E-01
  0.13896400939617321E+02  0.33415096340304790E-01  0.21218985336741006E-01
  0.15002775802752621E+02  0.24345375838782889E-01  0.14121656168087460E-01
  0.33280724402674153E+02  0.68756959680542368E-02  0.13022488513226071E-01
  0.45031014241933306E+02  0.12567522864798611E-01  0.13857963918312106E-01
  0.45300757691101801E+02  0.60129099915807095E-01  0.94861287064783889E-01
  0.47771157572543814E+02  0.46099597098421541E-01  0.54901720176701016E-01
  0.13498982970058412E+02  0.25225042180243126E-01  0.17332546210687610E-01
  0.16896685938516750E+02  0.16734669916317939E-01  0.89636913633821709E-02
  0.30001271941608870E+02  0.37674418386120481E-02  0.55493554467133431E-02
  0.44770723645725681E+02  0.12176703660772406E-01  0.11547339208937326E-01
  0.45544709414995822E+02  0.73701232535196878E-01  0.10801730088912773E+00
  0.48460264366959670E+02  0.19468647667081125E-01  0.28326682743374063E-01
  0.12675450552916706E+02  0.19624052646299649E-01  0.15343052293337010E-01
  0.16174890010253868E+02  0.16811914448171920E-01  0.10859097270609075E-01
  0.30037190802420241E+02  0.41419466897791067E-02  0.51588357729257595E-02
  0.44903775856563982E+02  0.13749338985856474E-01  0.12089315733650487E-01