  0.00000000000000000E+00  0.96085256698946119E-06  0.11035030685251530E-05
  0.00000000000000000E+00  0.96624078160338877E-06  0.11093394975755675E-05
  0.00000000000000000E+00  0.99340287132008806E-06  0.11387610445723975E-05
  0.48535018054055591E+02  0.52655568253592816E+30  0.45602143623431977E+30
  0.48535018054055598E+02  0.26327784126796408E+30  0.22801071811715996E+30
  0.48535018054079629E+02  0.38078603030846810E+30  0.32977821377397071E+30
  0.38324487420271769E+01  0.41109636184865863E-03  0.46251362280977295E-03
  0.38324493871153362E+01  0.47282383144325418E-03  0.53266445716004590E-03
  0.82580303336754159E+01  0.24026323954864570E-02  0.26393671581154271E-02
  0.48293530820623950E+02  0.32931740269504212E-01  0.41342305142937921E-01
  0.48293530871837937E+02  0.31897881090728726E-01  0.40298914841437959E-01
  0.51941099849072259E+02  0.61637464829902957E-02  0.52425166668193064E-02
  0.69989750982011270E+01  0.16030954246668144E-02  0.16995408448640479E-02
  0.69989754782316185E+01  0.16276331315719999E-02  0.17250898722927417E-02
  0.16168688269578588E+02  0.14820243855399526E-01  0.12480030648475462E-01
  0.47700948856589662E+02  0.36904875370570932E-01  0.48928672571393390E-01
  0.47700948912371793E+02  0.37324888984187718E-01  0.49641021082343209E-01
  0.52323487373047215E+02  0.10131796312227491E-01  0.85049093161381137E-02
  0.91147157948533533E+01  0.36480830456698424E-02  0.35890735421722636E-02
  0.91147164328113668E+01  0.35710539347875918E-02  0.35171975603833405E-02
  0.23522228155467712E+02  0.15524220007994095E-02  0.18337204521232055E-02
  0.47115154526721803E+02  0.25445834846687592E-01  0.29374103287187998E-01
  0.47115154650116693E+02  0.25643651024298039E-01  0.29206534069994711E-01
  0.51291613371283511E+02  0.42834316108780312E-02  0.37612028526039878E-02
  0.10274990032262876E+02  0.75221607901199338E-02  0.70211229169367057E-02
  0.10274990940559883E+02  0.69263591116808841E-02  0.64656421770400690E-02
  0.30130269146926153E+02  0.41971474679355992E-02  0.52026910626090678E-02
  0.46874499111284543E+02  0.58351664668115574E-01  0.64099429068619665E-01
  0.46874499310363063E+02  0.65194895638925443E-01  0.71447714875610011E-01
  0.48648901231483933E+02  0.18541055722428749E-01  0.22183486363628119E-01
  0.10866886786904860E+02  0.11123631386135592E-01  0.10199937872832198E-01
  0.10866887082858085E+02  0.11826103939132008E-01  0.10846717591682591E-01
  0.35663160436804333E+02  0.34965419331598022E-02  0.73983126798908136E-02
  0.45240844695612651E+02  0.42076968922883491E-01  0.43065262281375458E-01
  0.46955035744746766E+02  0.38198708347533084E-01  0.42896704254506944E-01
  0.46955035813261837E+02  0.36045086996968317E-01  0.40753650627848581E-01
  0.11071057503794981E+02  0.36123791187541217E+12  0.33642212268792389E+12
  0.11071058676296897E+02  0.26851775760465982E+12  0.25007152035627664E+12
  0.38860602648041429E+02  0.68466564147388000E+10  0.15913391164332983E+11
  0.42728620557214363E+02  0.16069242012137581E+11  0.69137104731305151E+10
  0.47041787648880003E+02  0.52299085757717993E+12  0.56156867493063147E+12
  0.47041787924844719E+02  0.79671855156872595E+12  0.85548758314554163E+12
  0.10866886786904850E+02  0.11123631386135546E-01  0.10199937872832141E-01
  0.10866887082858034E+02  0.11826103939131707E-01  0.10846717591682339E-01
  0.35663160436804333E+02  0.34965419331598000E-02  0.73983126798908170E-02
  0.45240844695612665E+02  0.42076968922890721E-01  0.43065262281383326E-01
  0.46955035744746780E+02  0.38198708347532410E-01  0.42896704254506417E-01
  0.46955035813261837E+02  0.36045086996968442E-01  0.40753650627848567E-01
  0.10274990032262838E+02  0.75221607901198254E-02  0.70211229169366189E-02
  0.10274990940559853E+02  0.69263591116807905E-02  0.64656421770399857E-02
  0.30130269146926167E+02  0.41971474679355957E-02  0.52026910626090739E-02
  0.46874499111284543E+02  0.58351664668115644E-01  0.64099429068619707E-01
  0.46874499310363070E+02  0.65194895638925526E-01  0.71447714875609913E-01
  0.48648901231483919E+02  0.18541055722429273E-01  0.22183486363628817E-01
  0.91147157948533195E+01  0.36480830456697994E-02  0.35890735421722185E-02
  0.91147164328113845E+01  0.35710539347876095E-02  0.35171975603833679E-02
  0.23522228155467715E+02  0.15524220007994102E-02  0.18337204521232050E-02
  0.47115154526721803E+02  0.25445834846687582E-01  0.29374103287187928E-01
  0.47115154650116679E+02  0.25643651024298286E-01  0.29206534069994912E-01
  0.51291613371283503E+02  0.42834316108780138E-02  0.37612028526039748E-02
  0.69989750982011190E+01  0.16030954246668073E-02  0.16995408448640410E-02
  0.69989754782315678E+01  0.16276331315719591E-02  0.17250898722926966E-02
  0.16168688269578610E+02  0.14820243855399408E-01  0.12480030648475400E-01
  0.47700948856589662E+02  0.36904875370570932E-01  0.48928672571393314E-01
  0.47700948912371793E+02  0.37324888984187697E-01  0.49641021082343195E-01
  0.52323487373047215E+02  0.10131796312227496E-01  0.85049093161381154E-02
  0.38324487420272195E+01  0.41109636184866638E-03  0.46251362280978157E-03
  0.38324493871154632E+01  0.47282383144327651E-03  0.53266445716007148E-03
  0.82580303336754088E+01  0.24026323954864535E-02  0.26393671581154184E-02
  0.48293530820623950E+02  0.32931740269504253E-01  0.41342305142937942E-01
  0.48293530871837945E+02  0.31897881090727949E-01  0.40298914841436960E-01
  0.51941099849072252E+02  0.61637464829903156E-02  0.52425166668193151E-02
  0.54742587906376059E+01  0.69117419004545487E-03  0.76059973996126851E-03
  0.54742596315591268E+01  0.70205352073018511E-03  0.77294430651138129E-03
  0.81910958308978508E+01  0.23351863779700051E-02  0.25949128080812651E-02
  0.48144907262343956E+02  0.44427794203429315E-01  0.57751740876417872E-01
  0.48144907357976081E+02  0.42873984139015810E-01  0.56897524767613741E-01
  0.52138460820021812E+02  0.71160269434200835E-02  0.59754654902717261E-02
  0.78135582927234273E+01  0.21935068526509121E-02  0.23011526556980292E-02
  0.79870015467450326E+01  0.22811522802555955E-02  0.23483189281381729E-02
  0.14302415359294104E+02  0.31411315253630216E-01  0.27545046376626796E-01
  0.47538771504406135E+02  0.28385502584239396E-01  0.34688398650236159E-01
  0.47726230372391008E+02  0.39019818569522045E-01  0.52792416743941632E-01
  0.52401176670264832E+02  0.84016195732161975E-02  0.69810296729747295E-02
  0.98175626539456271E+01  0.48640652172856624E-02  0.45733991227375906E-02
  0.10178389188566584E+02  0.68459733047601832E-02  0.65851146465100785E-02
  0.21124192175035930E+02  0.46276891680542961E-02  0.38049620654580984E-02
  0.46862594130226448E+02  0.48125671631206984E-01  0.53354066908356507E-01
  0.47294796814066956E+02  0.26026956754165907E-01  0.30328782077190478E-01
  0.51550258091386908E+02  0.51105858676704918E-02  0.44729279739773621E-02
  0.10871453935243743E+02  0.11489056440579324E-01  0.10224315983888017E-01
  0.11820145649004782E+02  0.14456507114976024E-01  0.12812458921962496E-01
  0.27534117611207076E+02  0.28013066287397737E-02  0.32872005779053036E-02
  0.46584110470124656E+02  0.38285476896588629E-01  0.43774542374742063E-01
  0.46793172873016303E+02  0.37375686014153468E-01  0.39129687392493291E-01
  0.49395169635011079E+02  0.71339397172610159E-02  0.80547448710332082E-02
  0.11475638133051241E+02  0.12896273526845133E-01  0.11290983510393440E-01
  0.12691506924801510E+02  0.19187984290502665E-01  0.16029614580868511E-01
  0.33146357773584590E+02  0.77041916270597409E-02  0.10536483722528108E-01
  0.45356030385928712E+02  0.90304678080571951E-01  0.92619319821529628E-01
  0.46696104074027524E+02  0.38070892456828306E-01  0.43397610863716095E-01
  0.47579855212068473E+02  0.26862206022997579E-01  0.39769263873280385E-01
  0.11759091855326222E+02  0.14241676232686575E-01  0.12477202004824491E-01
  0.13063196473130128E+02  0.20838528564678688E-01  0.17026609281922442E-01
  0.37149236590493118E+02  0.20099819859987853E-02  0.50376534599378374E-02
  0.42748253941092827E+02  0.12259632287608305E-01  0.71464668154558085E-02
  0.46806407863055576E+02  0.35240852783030317E-01  0.40026757712668760E-01
  0.47382687451449463E+02  0.25790280895901786E-01  0.35220335038382053E-01
  0.11643874506840261E+02  0.13793310585598339E-01  0.12170355093750650E-01
  0.13019926711264283E+02  0.20925277093908765E-01  0.17034495386848772E-01
  0.36156732547294503E+02  0.28196864692047068E-02  0.71419523907720293E-02
  0.43384270863629418E+02  0.11730364599826834E-01  0.76041707683509492E-02
  0.46735062891975396E+02  0.37620770923113903E-01  0.42395536272694614E-01
  0.47491790850054386E+02  0.26227901098215517E-01  0.37067780914275587E-01
  0.11134431471780452E+02  0.10539677101535184E-01  0.95098986401175797E-02
  0.12641302174893605E+02  0.18889538896107422E-01  0.15508320535609528E-01
  0.31412178374711736E+02  0.53299063513379975E-02  0.66849057761137242E-02
  0.45756787167665401E+02  0.45985661309940799E-01  0.46960846407788387E-01
  0.46688848677188979E+02  0.38572458638607948E-01  0.43021497287460422E-01
  0.48107160082757474E+02  0.42456019942914022E-01  0.67609597316080475E-01
  0.10088791140048205E+02  0.61014682301200364E-02  0.58219964293767879E-02
  0.11953424108779991E+02  0.14691286018313812E-01  0.12605858950454451E-01
  0.25421850472897372E+02  0.20729356566576186E-02  0.24055923289383004E-02
  0.46753470339281073E+02  0.38440232944207516E-01  0.41177487618819036E-01
  0.46921305171877279E+02  0.35887105167287131E-01  0.39561169534812285E-01
  0.50089454803682742E+02  0.52041431116759702E-02  0.51297582161844504E-02
  0.81550315925130334E+01  0.23720663071787780E-02  0.24593529373857200E-02
  0.10581468457514873E+02  0.74409808825964948E-02  0.69599336368851529E-02
  0.18830424380988113E+02  0.11135739950906455E-01  0.90042796593508626E-02
  0.47414535473884570E+02  0.28138744998954128E-01  0.33469985708941725E-01
  0.47429217598610009E+02  0.28435123027976312E-01  0.33132930386577268E-01
  0.51714608199776201E+02  0.56775568418415481E-02  0.49688319866773249E-02
  0.54809716941640430E+01  0.69280495959572893E-03  0.76245481590915358E-03
  0.78965779855936811E+01  0.22301173862826506E-02  0.23423259203618628E-02
  0.12436554751104818E+02  0.15432119691903013E-01  0.15158528008926067E-01
  0.47976741846102172E+02  0.69054440193634839E-01  0.97148412307207083E-01
  0.47980622139855683E+02  0.71226384330976236E-01  0.97496369662080543E-01
  0.52162901018248299E+02  0.27240950050845213E-01  0.23010426525243637E-01
  0.98279070857552462E+01  0.49072366219038276E-02  0.46000580342108553E-02
  0.98279088372403596E+01  0.49343770917910810E-02  0.46224356424543270E-02
  0.16189422902010442E+02  0.14353822130172146E-01  0.12471388279119889E-01
  0.46919363714692267E+02  0.35193237880622064E-01  0.39699176056011774E-01
  0.46919364081581563E+02  0.35311754431290275E-01  0.39901237881496208E-01
  0.52776881749103062E+02  0.48692433852933981E-01  0.38446737441712953E-01
  0.11242132235326578E+02  0.11440183803808969E-01  0.96873904780831604E-02
  0.11935391035284558E+02  0.14849531258104780E-01  0.12445777731209848E-01
  0.20750381522546647E+02  0.13896553558981639E-01  0.10801734090406001E-01
  0.46222979003117032E+02  0.35548411469398626E-01  0.43511099667741422E-01
  0.46439535965182138E+02  0.39070083816744476E-01  0.45792527902900865E-01
  0.52037064041203038E+02  0.59350126290156017E-02  0.49010321310923883E-02
  0.12093724520606678E+02  0.15539144602144598E-01  0.12370856830284018E-01
  0.14389102849050584E+02  0.40548627471423619E-01  0.27915459885041214E-01
  0.25503147305251563E+02  0.20633795356523911E-02  0.24894180299002699E-02
  0.45958397300893829E+02  0.43954578871145518E-01  0.56215999044022309E-01
  0.46138636739901280E+02  0.38660425593492483E-01  0.45068534662110728E-01
  0.50033262119470322E+02  0.52336745938617989E-02  0.51353219329890619E-02
  0.12675450552916717E+02  0.19624052646299798E-01  0.15343052293337068E-01
  0.16174890010253851E+02  0.16811914448171855E-01  0.10859097270609056E-01
  0.30037190802420241E+02  0.41419466897791085E-02  0.51588357729257517E-02
  0.44903775856563996E+02  0.13749338985856478E-01  0.12089315733650522E-01
  0.46115493200934445E+02  0.38571705336771039E-01  0.48865491475026480E-01
  0.48300888585750208E+02  0.27588720717325075E-01  0.45757143186198321E-01
  0.13021848395522722E+02  0.21113931260983012E-01  0.16507170762721766E-01
  0.16999387247108039E+02  0.15746613316392235E-01  0.95872892617141804E-02
  0.33823650332038845E+02  0.12256901062685743E-01  0.17567090668324101E-01
  0.42560361338113339E+02  0.11209768998495977E-01  0.69326733687283875E-02
  0.46238407385015670E+02  0.35140386219007523E-01  0.43514578912312925E-01
  0.47913781550918074E+02  0.46821500572684846E-01  0.90579270827956707E-01
  0.12985938601420484E+02  0.21017784853200785E-01  0.16570648805461243E-01
  0.17096780928957688E+02  0.15732878965571337E-01  0.94652894496030215E-02
  0.34718168946357238E+02  0.58201729182048127E-02  0.94592546619255303E-02
  0.41587441858812710E+02  0.13319009594354714E-01  0.81102239267141860E-02
  0.46143994032122372E+02  0.37715989079581569E-01  0.46699241260600044E-01
  0.48079262675264367E+02  0.43924115327621346E-01  0.82132904945539861E-01
  0.12595324678545079E+02  0.18573584599687491E-01  0.15114659235074690E-01
  0.16789613894288781E+02  0.15978598185330657E-01  0.95807036238212805E-02
  0.31465624440976118E+02  0.55177016700442786E-02  0.66525130233109015E-02
  0.43135630189629161E+02  0.11466223377659368E-01  0.85638853379272004E-02
  0.46109586471749729E+02  0.39619201739218110E-01  0.48398329966107038E-01
  0.48506681895644824E+02  0.17147344493713725E-01  0.29694227455418346E-01
  0.11789090140400500E+02  0.14329836436936236E-01  0.12522825544085452E-01
  0.16238521777593320E+02  0.16648287641682819E-01  0.10441850160351216E-01
  0.26657421284402076E+02  0.25261195686192206E-02  0.29023242343374674E-02
  0.45108290216034717E+02  0.15462371605038515E-01  0.15901410158914213E-01
  0.46392183384612430E+02  0.38124585377158217E-01  0.43810442628641720E-01
  0.49224866978444936E+02  0.77557295446593778E-02  0.10886080770038541E-01
  0.10241660695658338E+02  0.68855279702374206E-02  0.65732448791902161E-02
  0.14507078039720724E+02  0.22864979911296098E-01  0.16264373254399552E-01
  0.22061645231755236E+02  0.12798541998596273E-02  0.14872566245870799E-02
  0.46774738100829886E+02  0.38013187055407682E-01  0.39932633782384333E-01
  0.46916284394836097E+02  0.35727537308811827E-01  0.39200727347602611E-01
  0.50305760797671972E+02  0.51490329965071854E-02  0.53349063702976523E-02
  0.81550315925130672E+01  0.23720663071788001E-02  0.24593529373857369E-02
  0.10581468457514864E+02  0.74409808825965382E-02  0.69599336368851858E-02
  0.18830424380988067E+02  0.11135739950906469E-01  0.90042796593508747E-02
  0.47414535473884577E+02  0.28138744998954138E-01  0.33469985708942045E-01
  0.47429217598609995E+02  0.28435123027976180E-01  0.33132930386576866E-01
  0.51714608199776187E+02  0.56775568418414926E-02  0.49688319866772737E-02
  0.12314726426021295E+02  0.16906509575751353E-01  0.12785846403132932E-01
  0.12314727152732049E+02  0.16508077435133967E-01  0.12472952106666687E-01
  0.23790232727874614E+02  0.15372438480394488E-02  0.19627760039325724E-02
  0.45566193005984537E+02  0.63522177160936014E-01  0.89277289844117994E-01
  0.45566193202402580E+02  0.63452003834659362E-01  0.89207290348820731E-01
  0.51913922016789954E+02  0.66067109005204733E-02  0.52152969362149254E-02
  0.12968300280031020E+02  0.22062588035514724E-01  0.15620648152150883E-01
  0.14045320527656445E+02  0.32985519823622994E-01  0.21153021484576710E-01
  0.27255534895847056E+02  0.25095051735698143E-02  0.33675786902559002E-02
  0.45350339588486108E+02  0.73214766063695813E-01  0.11061233240223999E+00
  0.45355390291086529E+02  0.75372836399213786E-01  0.11063187310482291E+00
  0.50367863074219557E+02  0.57164055138796757E-02  0.48753713755094012E-02
  0.13498982970058426E+02  0.25225042180243247E-01  0.17332546210687701E-01
  0.16896685938516718E+02  0.16734669916317918E-01  0.89636913633822004E-02
  0.30001271941608856E+02  0.37674418386120455E-02  0.55493554467133258E-02
  0.44770723645725674E+02  0.12176703660772278E-01  0.11547339208937232E-01
  0.45544709414995808E+02  0.70592208245396498E-01  0.10299210633511535E+00
  0.48460264366959684E+02  0.19447081612619429E-01  0.28304313018080816E-01
  0.13859604736626260E+02  0.32035811887214792E-01  0.21826410990454567E-01
  0.19237278243811865E+02  0.14347430356263633E-01  0.71075860058009317E-02
  0.32351421196323969E+02  0.57889072522708911E-02  0.95284215147862367E-02
  0.42548978541513712E+02  0.11573356303237291E-01  0.66147773031775452E-02
  0.45674728909944179E+02  0.47229213645514120E-01  0.66005923290784543E-01
  0.47963025459448161E+02  0.53479106334697712E-01  0.11207906228758986E+00
  0.13857142388967862E+02  0.31909819545180920E-01  0.21882132667424309E-01
  0.20102731247590821E+02  0.17940789437350751E-01  0.82976039859830788E-02
  0.33836557569716057E+02  0.11238472876855308E-01  0.18724646679942298E-01
  0.40419456295243045E+02  0.10315552709783894E-01  0.55456531851383823E-02
  0.45541621028745311E+02  0.72625467079761696E-01  0.10357963837597534E+00
  0.48207054890669568E+02  0.32007053976355289E-01  0.64903002906429905E-01
  0.13560481211509851E+02  0.25661401232311563E-01  0.18302527265239062E-01
  0.19881229167426479E+02  0.17438443148371716E-01  0.80475966274825943E-02
  0.32073862556365491E+02  0.61557980920425729E-02  0.81713205183342602E-02
  0.40879624881332184E+02  0.11871607113699435E-01  0.78454679687787431E-02
  0.45473317990126105E+02  0.82255537577986537E-01  0.11742866317109002E+00
  0.48600630997966526E+02  0.15591940082618118E-01  0.29733366931322700E-01
  0.12983715828954736E+02  0.21103776861321831E-01  0.16492421981145436E-01
  0.18971836939805748E+02  0.13759726060932507E-01  0.70676583514903751E-02
  0.28762466423338925E+02  0.34326787642528400E-02  0.41152194328534014E-02
  0.42748298799928847E+02  0.10737641004156325E-01  0.82385449727738671E-02
  0.45791939393112074E+02  0.40447126748271146E-01  0.51285724662571849E-01
  0.48978373237939742E+02  0.94087584065941313E-02  0.15465504703215342E-01
  0.11789090140400498E+02  0.14329836436936257E-01  0.12522825544085452E-01
  0.16238521777593306E+02  0.16648287641682930E-01  0.10441850160351292E-01
  0.26657421284402073E+02  0.25261195686192232E-02  0.29023242343374713E-02
  0.45108290216034725E+02  0.15462371605040128E-01  0.15901410158916222E-01
  0.46392183384612437E+02  0.38124585377158363E-01  0.43810442628641838E-01
  0.49224866978444936E+02  0.77557295446593743E-02  0.10886080770038531E-01
  0.10088791140048244E+02  0.61014682301202793E-02  0.58219964293770073E-02
  0.11953424108779997E+02  0.14691286018313845E-01  0.12605858950454464E-01
  0.25421850472897376E+02  0.20729356566576199E-02  0.24055923289383087E-02
  0.46753470339281087E+02  0.38440232944207037E-01  0.41177487618818613E-01
  0.46921305171877258E+02  0.35887105167285556E-01  0.39561169534810710E-01
  0.50089454803682742E+02  0.52041431116759615E-02  0.51297582161844383E-02
  0.13467297243751563E+02  0.25479240469662948E-01  0.16596743888893081E-01
  0.13467298450522978E+02  0.25353739001647176E-01  0.16564501243933053E-01
  0.30681251044990386E+02  0.40603628283228466E-02  0.62019212195314815E-02
  0.45138279707827415E+02  0.29400265810526589E-01  0.45191242708728666E-01
  0.45138280067858261E+02  0.27936752016601753E-01  0.43341779486757472E-01
  0.49530251562532229E+02  0.68214605247148936E-02  0.56123197175168239E-02
  0.13896400939617308E+02  0.33415096340304602E-01  0.21218985336740954E-01
  0.15002775802752593E+02  0.24345375838782934E-01  0.14121656168087516E-01
  0.33280724402674139E+02  0.68756959680542134E-02  0.13022488513225954E-01
  0.45031014241933306E+02  0.12567522864798543E-01  0.13857963918312023E-01
  0.45300757691101801E+02  0.59425131046936981E-01  0.93711602841953290E-01
  0.47771157572543807E+02  0.46050455793919289E-01  0.54825332827979883E-01
  0.14206006563580541E+02  0.40942001575597194E-01  0.25646092446583797E-01
  0.17841375981122020E+02  0.15621335389774392E-01  0.77573667504704591E-02
  0.34740691135005726E+02  0.41480663393398277E-02  0.11769209136085526E-01
  0.43015864096464398E+02  0.14407125663572185E-01  0.65701629596846512E-02
  0.45420073536942731E+02  0.88846772719798697E-01  0.13889529267417286E+00
  0.47271478956675388E+02  0.21342243999377800E-01  0.34712976564182436E-01
  0.14210017313202135E+02  0.40819317379898364E-01  0.25680665329876354E-01
  0.20186293823012857E+02  0.18690186481969295E-01  0.78462306385079054E-02
  0.35643190251155247E+02  0.22205214266587652E-02  0.97661992408741311E-02
  0.39882734569809166E+02  0.10121641179387221E-01  0.30020348937031659E-02
  0.45280968849792941E+02  0.52464679806499132E-01  0.80985073874656324E-01
  0.47791223887788853E+02  0.34294859475731569E-01  0.74918946460354671E-01
  0.13984797399401488E+02  0.32720090308863983E-01  0.21433052929642111E-01
  0.20879765519617482E+02  0.21233975712547079E-01  0.82508095773626867E-02
  0.34511841927126603E+02  0.52536265639083757E-02  0.11842414412984384E-01
  0.39134564508569895E+02  0.92517380501291914E-02  0.48479383156803096E-02
  0.45177730758903209E+02  0.25805585772625324E-01  0.37179638347996299E-01
  0.48308175511683721E+02  0.23724250759753027E-01  0.48911075612784689E-01
  0.13560481211509826E+02  0.25661401232311167E-01  0.18302527265238851E-01
  0.19881229167426497E+02  0.17438443148371816E-01  0.80475966274826307E-02
  0.32073862556365484E+02  0.61557980920425642E-02  0.81713205183342550E-02
  0.40879624881332184E+02  0.11871607113699466E-01  0.78454679687787379E-02
  0.45473317990126155E+02  0.82255537577985399E-01  0.11742866317108723E+00
  0.48600630997966526E+02  0.15591940082618086E-01  0.29733366931322697E-01
  0.12595324678545122E+02  0.18573584599687904E-01  0.15114659235074998E-01
  0.16789613894288792E+02  0.15978598185330751E-01  0.95807036238212771E-02
  0.31465624440976107E+02  0.55177016700442691E-02  0.66525130233108668E-02
  0.43135630189629161E+02  0.11466223377659379E-01  0.85638853379272021E-02
  0.46109586471749722E+02  0.39619201739218471E-01  0.48398329966107531E-01
  0.48506681895644839E+02  0.17147344493713624E-01  0.29694227455418297E-01
  0.11134431471780466E+02  0.10539677101535238E-01  0.95098986401175867E-02
  0.12641302174893580E+02  0.18889538896107179E-01  0.15508320535609287E-01
  0.31412178374711740E+02  0.53299063513380035E-02  0.66849057761137415E-02
  0.45756787167665408E+02  0.45985661309940397E-01  0.46960846407787867E-01
  0.46688848677188957E+02  0.38572458638608136E-01  0.43021497287460617E-01
  0.48107160082757495E+02  0.42456019942911434E-01  0.67609597316076311E-01
  0.14177947299610398E+02  0.41687417222920409E-01  0.25546164590679259E-01
  0.14177948417950734E+02  0.40667363432555198E-01  0.24933437734617942E-01
  0.36472826475779740E+02  0.18412165036296886E-02  0.85650322818599522E-02
  0.45386937331703237E+02  0.77963277536914635E-01  0.12423664147807553E+00
  0.45386937681032677E+02  0.77893751836594569E-01  0.12404267982371565E+00
  0.46179452937403937E+02  0.50137140533168742E-01  0.29173083592180248E-01
  0.14375074760437737E+02  0.43813301691577364E-01  0.26603230849621601E-01
  0.15493398178170844E+02  0.22526987391316297E-01  0.12876385462546961E-01
  0.38205559201117815E+02  0.23457737883198636E-02  0.68387128730147814E-02
  0.43481813298653790E+02  0.16269064477178366E-01  0.38013894063235829E-02
  0.45477694863350123E+02  0.77918987544138910E-01  0.12234127546420472E+00
  0.46120717902889268E+02  0.35101330749178546E-01  0.51157357942079595E-01
  0.14371863447722708E+02  0.43938261183984445E-01  0.26762258671145098E-01
  0.18074728855073293E+02  0.15215389696605970E-01  0.75075817549823919E-02
  0.38070421163412846E+02  0.24915766116053188E-03  0.82220190356897399E-02
  0.40732612386564711E+02  0.21708922735684595E-01  0.44483658177521285E-03
  0.45369509358805118E+02  0.74180003678149448E-01  0.11699781224357247E+00
  0.46975722513097750E+02  0.28708167650535629E-01  0.46978927838824236E-01
  0.14210017313202112E+02  0.40819317379898711E-01  0.25680665329876444E-01
  0.20186293823012843E+02  0.18690186481969264E-01  0.78462306385078864E-02
  0.35643190251155239E+02  0.22205214266587622E-02  0.97661992408741762E-02
  0.39882734569809173E+02  0.10121641179387261E-01  0.30020348937031547E-02
  0.45280968849792920E+02  0.52464679806490264E-01  0.80985073874642308E-01
  0.47791223887788838E+02  0.34294859475730716E-01  0.74918946460352950E-01
  0.13857142388967866E+02  0.31909819545180955E-01  0.21882132667424361E-01
  0.20102731247590842E+02  0.17940789437350776E-01  0.82976039859830944E-02
  0.33836557569716057E+02  0.11238472876855287E-01  0.18724646679942242E-01
  0.40419456295243037E+02  0.10315552709783845E-01  0.55456531851383528E-02
  0.45541621028745311E+02  0.72625467079761905E-01  0.10357963837597525E+00
  0.48207054890669575E+02  0.32007053976355025E-01  0.64903002906429044E-01
  0.12985938601420486E+02  0.21017784853200747E-01  0.16570648805461309E-01
  0.17096780928957688E+02  0.15732878965571379E-01  0.94652894496030111E-02
  0.34718168946357231E+02  0.58201729182048006E-02  0.94592546619255962E-02
  0.41587441858812703E+02  0.13319009594354758E-01  0.81102239267141375E-02
  0.46143994032122350E+02  0.37715989079582547E-01  0.46699241260601106E-01
  0.48079262675264360E+02  0.43924115327623046E-01  0.82132904945543733E-01
  0.11643874506840305E+02  0.13793310585598550E-01  0.12170355093750810E-01
  0.13019926711264317E+02  0.20925277093908776E-01  0.17034495386848741E-01
  0.36156732547294482E+02  0.28196864692047268E-02  0.71419523907720458E-02
  0.43384270863629403E+02  0.11730364599826884E-01  0.76041707683509874E-02
  0.46735062891975389E+02  0.37620770923114125E-01  0.42395536272694753E-01
  0.47491790850054393E+02  0.26227901098215597E-01  0.37067780914275782E-01
  0.14446146462356918E+02  0.13436420469669280E+32  0.78684177235343310E+31
  0.14446147122887098E+02  0.13436420534153266E+32  0.78684176741881343E+31
  0.40093010048068102E+02  0.34312725154189086E+07  0.15590572084437757E+35
  0.43276230664577263E+02  0.10718518308050956E+35  0.24657686866080365E+07
  0.45558795786956779E+02  0.63207856078429298E-01  0.97041186259062745E-01
  0.45558795996385896E+02  0.63228952915869177E-01  0.97027453354310997E-01
  0.14375074760437734E+02  0.43813301691577655E-01  0.26603230849621792E-01
  0.15493398178170857E+02  0.22526987391316252E-01  0.12876385462546890E-01
  0.38205559201117836E+02  0.23457737883199130E-02  0.68387128730148343E-02
  0.43481813298653769E+02  0.16269064477178515E-01  0.38013894063235990E-02
  0.45477694863350116E+02  0.77918987544138993E-01  0.12234127546420517E+00
  0.46120717902889268E+02  0.35101330749178525E-01  0.51157357942079658E-01
  0.14206006563580495E+02  0.40942001575597367E-01  0.25646092446584043E-01
  0.17841375981122031E+02  0.15621335389774386E-01  0.77573667504704739E-02
  0.34740691135005740E+02  0.41480663393397964E-02  0.11769209136085491E-01
  0.43015864096464384E+02  0.14407125663572188E-01  0.65701629596846313E-02
  0.45420073536942702E+02  0.88846772719798184E-01  0.13889529267417156E+00
  0.47271478956675395E+02  0.21342243999377879E-01  0.34712976564182672E-01
  0.13859604736626267E+02  0.32035811887214952E-01  0.21826410990454615E-01
  0.19237278243811886E+02  0.14347430356263716E-01  0.71075860058009517E-02
  0.32351421196323969E+02  0.57889072522708971E-02  0.95284215147862783E-02
  0.42548978541513712E+02  0.11573356303237314E-01  0.66147773031775504E-02
  0.45674728909944179E+02  0.47229213645514127E-01  0.66005923290784793E-01
  0.47963025459448161E+02  0.53479106334698240E-01  0.11207906228759047E+00
  0.13021848395522710E+02  0.21113931260982974E-01  0.16507170762721738E-01
  0.16999387247108050E+02  0.15746613316392218E-01  0.95872892617141735E-02
  0.33823650332038859E+02  0.12256901062685673E-01  0.17567090668324025E-01
  0.42560361338113289E+02  0.11209768998495828E-01  0.69326733687282713E-02
  0.46238407385015662E+02  0.35140386219007592E-01  0.43514578912313064E-01
  0.47913781550918081E+02  0.46821500572685824E-01  0.90579270827959371E-01
  0.11759091855326236E+02  0.14241676232686620E-01  0.12477202004824547E-01
  0.13063196473130152E+02  0.20838528564678684E-01  0.17026609281922386E-01
  0.37149236590493103E+02  0.20099819859987827E-02  0.50376534599378756E-02
  0.42748253941092798E+02  0.12259632287608213E-01  0.71464668154557409E-02
  0.46806407863055540E+02  0.35240852783031663E-01  0.40026757712670225E-01
  0.47382687451449478E+02  0.25790280895901910E-01  0.35220335038382324E-01
  0.13896400939617321E+02  0.33415096340304672E-01  0.21218985336740940E-01
  0.15002775802752621E+02  0.24345375838782903E-01  0.14121656168087479E-01
  0.33280724402674153E+02  0.68756959680542368E-02  0.13022488513226063E-01
  0.45031014241933306E+02  0.12567522864798604E-01  0.13857963918312075E-01
  0.45300757691101801E+02  0.59425131046936773E-01  0.93711602841953484E-01
  0.47771157572543814E+02  0.46050455793920031E-01  0.54825332827980688E-01
  0.13498982970058412E+02  0.25225042180243101E-01  0.17332546210687614E-01
  0.16896685938516750E+02  0.16734669916317932E-01  0.89636913633821796E-02
  0.30001271941608870E+02  0.37674418386120447E-02  0.55493554467133431E-02
  0.44770723645725681E+02  0.12176703660772408E-01  0.11547339208937328E-01
  0.45544709414995822E+02  0.70592208245391488E-01  0.10299210633510743E+00
  0.48460264366959670E+02  0.19447081612619765E-01  0.28304313018081336E-01
  0.12675450552916706E+02  0.19624052646299659E-01  0.15343052293337010E-01
  0.16174890010253868E+02  0.16811914448171934E-01  0.10859097270609073E-01
  0.30037190802420241E+02  0.41419466897791050E-02  0.51588357729257578E-02
  0.44903775856563982E+02  0.13749338985856448E-01  0.12089315733650467E-01