  0.73316259132770345E-06  0.22213380372202383E-05  0.93763103278779808E-06
  0.99615728285689043E-06  0.22757971471049785E-05  0.96066851518311709E-06
  0.10685429186264781E-05  0.14381833119726869E-05  0.60706053091531561E-06
  0.41099732667620380E+02  0.49464971629953045E-01  0.14847247791598522E+00
  0.41099732667620387E+02  0.49383392652160886E-01  0.14815456302238497E+00
  0.41099732667620394E+02  0.49484961642176979E-01  0.14847594314602941E+00
  0.20011656619842095E+01  0.43812375956004025E-03  0.18270101156806843E-03
  0.20011656619844786E+01  0.42540283006643780E-03  0.17730418109891213E-03
  0.47364613678335834E+01  0.22437995350356268E-02  0.90301882528195021E-03
  0.41086910012269243E+02  0.65068719897603752E-01  0.19639609216661014E+00
  0.41086910012269250E+02  0.65879441475621400E-01  0.19860299387880689E+00
  0.44096662994699138E+02  0.79683959266288549E-02  0.19274103060379778E-01
  0.38279540456409888E+01  0.16529648384039225E-02  0.65618961047920143E-03
  0.38279540456410936E+01  0.16402729330649241E-02  0.65130374019470034E-03
  0.93188593503441695E+01  0.84802949234732028E-01  0.25992818512101341E-01
  0.41037220320834528E+02  0.94051457743288588E-01  0.30310586028874414E+00
  0.41037220320834528E+02  0.94596358040682199E-01  0.30443186834521729E+00
  0.44121715916726693E+02  0.51899230186865470E-02  0.13010007250334658E-01
  0.53242704461202583E+01  0.36934140920539269E-02  0.13712267328467261E-02
  0.53242704461203560E+01  0.36254740002226926E-02  0.13465670533977883E-02
  0.13658190667508515E+02  0.38451127280240568E-01  0.91512219602580547E-02
  0.40943722223519273E+02  0.13383212251542459E+00  0.43699820017915009E+00
  0.40943722223519288E+02  0.13377400020679425E+00  0.43570662754022410E+00
  0.43967759306978174E+02  0.50575973440362245E-02  0.13679446547565333E-01
  0.63934817700560744E+01  0.71542721038521410E-02  0.24798557523527318E-02
  0.63934817700561766E+01  0.70128444005109897E-02  0.24314686401704661E-02
  0.17719945019150561E+02  0.26507814125424967E-02  0.81151530756284082E-03
  0.40844220972068698E+02  0.10383465889021055E+00  0.33590763952914771E+00
  0.40844220972068705E+02  0.10354066492659092E+00  0.33469242998218934E+00
  0.43454846265796775E+02  0.83290482654657036E-02  0.31181866063120858E-01
  0.70428731748971147E+01  0.11161812120931602E-01  0.36704729461635396E-02
  0.70428731748971760E+01  0.11367411809286814E-01  0.37407003728069199E-02
  0.21443345780133512E+02  0.59051862349638407E-02  0.13589574603334400E-02
  0.40810459094712378E+02  0.11587284097312786E+00  0.38123370584356753E+00
  0.40810459094712392E+02  0.11571309184449664E+00  0.38069107852781781E+00
  0.42510450052728963E+02  0.16517676604051543E-01  0.85308121033917467E-01
  0.73833469565557506E+01  0.18314416707239389E-01  0.58600593288968784E-02
  0.73833469565558154E+01  0.17573681055770046E-01  0.56254519706170720E-02
  0.24673953613699734E+02  0.14544906855588327E-01  0.20529586606748639E-02
  0.40883256625129206E+02  0.97207435400584977E-01  0.33355935471939868E+00
  0.40883256625129228E+02  0.97226881173881910E-01  0.33350618152254585E+00
  0.41246895989327243E+02  0.29828392089304716E-02  0.14626214060117248E-01
  0.75552827976504693E+01  0.25184139097180289E-01  0.80027854478185671E-02
  0.75552827976505590E+01  0.24286257918168269E-01  0.77185334510831045E-02
  0.27159809933040442E+02  0.31437860581044037E-01  0.18839976295192673E-02
  0.39967304606253478E+02  0.29411901780372661E-02  0.20775243299455001E-01
  0.41022729214423833E+02  0.85688966993493765E-01  0.30567900878079807E+00
  0.41022729214423833E+02  0.86842768696138287E-01  0.30907450014326937E+00
  0.76364927783707230E+01  0.39892462248395169E-01  0.12724133256959017E-01
  0.76364927783707648E+01  0.36338054638574341E-01  0.11585457463083424E-01
  0.28566958280070136E+02  0.18059299207199599E-01  0.51450862419264928E-03
  0.39117051024689822E+02  0.22159640389945723E-02  0.25721186613760626E-01
  0.41131837963171343E+02  0.27820782837886492E-01  0.98317401966713333E-01
  0.41131837963171343E+02  0.28257593761285310E-01  0.99684096054680593E-01
  0.76364927783707275E+01  0.39753116545172856E-01  0.12679498785519074E-01
  0.76364927783707888E+01  0.36477400341796980E-01  0.11630091934523513E-01
  0.28566958280070143E+02  0.18059299207199533E-01  0.51450862419264440E-03
  0.39117051024689822E+02  0.22159640389945701E-02  0.25721186613760626E-01
  0.41131837963171328E+02  0.28257570763476288E-01  0.99684023960272289E-01
  0.41131837963171343E+02  0.27820805835701051E-01  0.98317474061140622E-01
  0.75552827976504728E+01  0.25228108140420494E-01  0.80167091228408975E-02
  0.75552827976505021E+01  0.24242288874926649E-01  0.77046097760603499E-02
  0.27159809933040446E+02  0.31437860581043996E-01  0.18839976295192634E-02
  0.39967304606253478E+02  0.29411901780372705E-02  0.20775243299455026E-01
  0.41022729214423833E+02  0.86626835067975597E-01  0.30843833774910751E+00
  0.41022729214423848E+02  0.85904900621657412E-01  0.30631517117496593E+00
  0.73833469565557648E+01  0.18330322189834058E-01  0.58650842674571333E-02
  0.73833469565558278E+01  0.17557775573175800E-01  0.56204270320569334E-02
  0.24673953613699727E+02  0.14544906855588305E-01  0.20529586606748617E-02
  0.40883256625129206E+02  0.97284100156884518E-01  0.33363601847319174E+00
  0.40883256625129214E+02  0.97150216417575194E-01  0.33342951776872620E+00
  0.41246895989327228E+02  0.29828392089304473E-02  0.14626214060117047E-01
  0.70428731748970943E+01  0.11164033483874672E-01  0.36712460045657713E-02
  0.70428731748971618E+01  0.11365190446343395E-01  0.37399273144045806E-02
  0.21443345780133534E+02  0.59051862349638641E-02  0.13589574603334420E-02
  0.40810459094712385E+02  0.11568187179640360E+00  0.38050178788622679E+00
  0.40810459094712392E+02  0.11590406102122278E+00  0.38142299648516842E+00
  0.42510450052728970E+02  0.16517676604051616E-01  0.85308121033918188E-01
  0.63934817700560664E+01  0.71437579648802119E-02  0.24762568543664752E-02
  0.63934817700561659E+01  0.70233585394828320E-02  0.24350675381566958E-02
  0.17719945019150543E+02  0.26507814125424863E-02  0.81151530756283920E-03
  0.40844220972068683E+02  0.10383981476564191E+00  0.33605102893907679E+00
  0.40844220972068698E+02  0.10353550905117352E+00  0.33454904057230045E+00
  0.43454846265796775E+02  0.83290482654657175E-02  0.31181866063120827E-01
  0.53242704461202690E+01  0.36996127062706853E-02  0.13734663230823066E-02
  0.53242704461203774E+01  0.36192753860060309E-02  0.13443274631622405E-02
  0.13658190667508507E+02  0.38451127280240020E-01  0.91512219602579610E-02
  0.40943722223519281E+02  0.13383272886857991E+00  0.43710721337231701E+00
  0.40943722223519288E+02  0.13377339385364967E+00  0.43559761434709193E+00
  0.43967759306978174E+02  0.50575973440362288E-02  0.13679446547565333E-01
  0.38279540456409555E+01  0.16508790331091331E-02  0.65540568024054972E-03
  0.38279540456410386E+01  0.16423587383595762E-02  0.65208767043329978E-03
  0.93188593503441322E+01  0.84802949234735414E-01  0.25992818512102146E-01
  0.41037220320834535E+02  0.94280871735334268E-01  0.30365854695770217E+00
  0.41037220320834535E+02  0.94366944048628248E-01  0.30387918167622907E+00
  0.44121715916726693E+02  0.51899230186865514E-02  0.13010007250334667E-01
  0.20011656619843712E+01  0.43783344573741567E-03  0.18257857531172090E-03
  0.20011656619844733E+01  0.42569314388912364E-03  0.17742661735528574E-03
  0.47364613678336083E+01  0.22437995350356402E-02  0.90301882528195541E-03
  0.41086910012269250E+02  0.65956135065127458E-01  0.19876515704415215E+00
  0.41086910012269257E+02  0.64992026308083484E-01  0.19623392900122105E+00
  0.44096662994699152E+02  0.79683959266263205E-02  0.19274103060373669E-01
  0.28992306767529792E+01  0.73213326153359940E-03  0.30023235327107471E-03
  0.28992306767530147E+01  0.71260950221026936E-03  0.29205929041063077E-03
  0.47184798050377834E+01  0.22560747674846404E-02  0.91377294918162152E-03
  0.41108962927939984E+02  0.83530269547411384E-01  0.22824337783963794E+00
  0.41108962927939999E+02  0.83627763570015903E-01  0.22840909673195445E+00
  0.44067256155728863E+02  0.15649793799682388E-01  0.37327378750436069E-01
  0.41420931206075471E+01  0.21325893152639064E-02  0.84307470272264881E-03
  0.43867693062898754E+01  0.22201865443140290E-02  0.86837744381080119E-03
  0.83054301848201533E+01  0.33991758456510215E-01  0.11787049707465372E-01
  0.41069864595241235E+02  0.68414866916769804E-01  0.21753170355397497E+00
  0.41083451094621708E+02  0.68639758389617750E-01  0.21260129616845053E+00
  0.44073567700556133E+02  0.76335265077522186E-02  0.18784765225643735E-01
  0.54650180331597591E+01  0.41300432763735212E-02  0.15365229123634092E-02
  0.57268412958250199E+01  0.45927246563016774E-02  0.16687441899662452E-02
  0.12439207559555053E+02  0.27412591015176600E-01  0.72055284986622470E-02
  0.40956058948765907E+02  0.15236372290956940E+00  0.50678741519227022E+00
  0.41037608116443309E+02  0.93059248300530514E-01  0.30739322338937886E+00
  0.43957210108094543E+02  0.52716260316938400E-02  0.14064183420947543E-01
  0.66396855265899166E+01  0.85344406487289793E-02  0.29529019223565804E-02
  0.67077766375505883E+01  0.86243912460477138E-02  0.29088767106123141E-02
  0.16426804596925894E+02  0.21245597556223874E-02  0.69228117958674586E-03
  0.40821579900111679E+02  0.11412003697857810E+00  0.37245289381600843E+00
  0.40946743010551089E+02  0.13715225494230815E+00  0.45575410914266995E+00
  0.43568944804499765E+02  0.56778255164902447E-02  0.17978679327815238E-01
  0.73058506210293004E+01  0.15416902998126064E-01  0.49097171189068775E-02
  0.74878118483099438E+01  0.18720912840799121E-01  0.60298248033489391E-02
  0.20143003274805217E+02  0.43494812599717903E-02  0.11195351270061470E-02
  0.40762925281292269E+02  0.82271132247102183E-01  0.27962138179083473E+00
  0.40801051099606994E+02  0.11419091801171080E+00  0.36954272192409893E+00
  0.42843580271324946E+02  0.24704530906996102E-01  0.12449452543552809E+00
  0.76187014991060851E+01  0.27484294297676397E-01  0.85502172548838091E-02
  0.80072020061224016E+01  0.29325139121829064E-01  0.90211221720397534E-02
  0.23452333802741514E+02  0.96774485414203772E-02  0.16965379936721163E-02
  0.40529352240428103E+02  0.18953777228244723E-01  0.68337067701456672E-01
  0.40832853298449656E+02  0.10584248486113000E+00  0.36080361071118583E+00
  0.41959808135402547E+02  0.56903595184336535E-02  0.31122217338461187E-01
  0.77849552422393744E+01  0.27086647623479967E-01  0.83745688869249942E-02
  0.82958844588560101E+01  0.35686879581887702E-01  0.10692802632785853E-01
  0.26128525292146637E+02  0.30852514464836257E-01  0.27377663937126961E-02
  0.39825892909807948E+02  0.35257394306518379E-02  0.19267393844551058E-01
  0.40983106556270414E+02  0.10688734500123004E+00  0.38629101202490213E+00
  0.41483303487561422E+02  0.39460344998797341E-02  0.18163446871613614E-01
  0.78823540960633629E+01  0.28993145376086587E-01  0.89873296647547899E-02
  0.84420979447739875E+01  0.37515176375711272E-01  0.11128208486501232E-01
  0.27867218013369648E+02  0.28051155027266905E-01  0.10143014782743385E-02
  0.38998311283944211E+02  0.26721827633564813E-02  0.25280299798917900E-01
  0.41102124655956310E+02  0.42165311440242166E-01  0.14774073885717118E+00
  0.41443130417911810E+02  0.40973923355478144E-02  0.17429194423351724E-01
  0.79065597966538794E+01  0.29178509505015084E-01  0.90642959595006074E-02
  0.84743844506433419E+01  0.37609459977149325E-01  0.11119585396208316E-01
  0.28340003879741033E+02  0.21319064724450013E-01  0.62933156281828027E-03
  0.38726827963480829E+02  0.28708280687437301E-02  0.33346737044504270E-01
  0.41107987394900348E+02  0.65019187232970038E-01  0.20757592917190951E+00
  0.41488428330796090E+02  0.41985102989909378E-02  0.17722703942579070E-01
  0.78368799037223136E+01  0.28253420435010775E-01  0.88065688065928731E-02
  0.84094219495304099E+01  0.37444581670322073E-01  0.11061729714996979E-01
  0.27418629357283550E+02  0.29090546541556534E-01  0.14965709576860093E-02
  0.39208355528017869E+02  0.30269133183467877E-02  0.23876957612965440E-01
  0.41007554830431012E+02  0.89288000274938190E-01  0.31994573724146108E+00
  0.41517958753696362E+02  0.41316163362304717E-02  0.17989944505890424E-01
  0.76617610287176472E+01  0.24904479787301322E-01  0.78495849311893250E-02
  0.82835116185153108E+01  0.35569120805579273E-01  0.10515667205851861E-01
  0.25325107920743008E+02  0.18113722928250704E-01  0.21251562947369415E-02
  0.40042298875569692E+02  0.44572924103161776E-02  0.20595344323276983E-01
  0.40880280456964080E+02  0.95665145784416303E-01  0.32920467400920905E+00
  0.41675681855906319E+02  0.37863476619697588E-02  0.18824693236115072E-01
  0.73238059958922186E+01  0.15936170795426446E-01  0.51639591922505532E-02
  0.80863646726973020E+01  0.30335629682566929E-01  0.90869576710392880E-02
  0.22393660538790570E+02  0.73274237944433883E-02  0.14840695416801775E-02
  0.40555649751660383E+02  0.22847134938844871E-01  0.82033977041854320E-01
  0.40811181035313410E+02  0.11568250575373341E+00  0.38130543447208820E+00
  0.42305123277493074E+02  0.87595436151254105E-02  0.47087216943214438E-01
  0.66995419780317684E+01  0.85457963157572030E-02  0.29246203219703486E-02
  0.77045542686646238E+01  0.24409222194493201E-01  0.76014190212224057E-02
  0.18916845288741467E+02  0.34901172909142593E-02  0.98311278323727296E-03
  0.40770962624886799E+02  0.85414076856482932E-01  0.28500033037930111E+00
  0.40829616286339032E+02  0.11122899529554427E+00  0.35850267484266141E+00
  0.43133320982985310E+02  0.35685258264160892E-01  0.17600169919539330E+00
  0.56825907138053369E+01  0.45117177006673169E-02  0.16519037477635617E-02
  0.69874700211814016E+01  0.10602499072361528E-01  0.35446144309979910E-02
  0.15113678525918262E+02  0.15824985795114060E-02  0.54675441416032961E-03
  0.40902142719383150E+02  0.11172436290343084E+00  0.36069714912279355E+00
  0.40975128203317063E+02  0.12443036308604434E+00  0.42185535565164223E+00
  0.43699479587645939E+02  0.62138011103638558E-02  0.18470905837096204E-01
  0.42935720188638822E+01  0.21794302601997177E-02  0.85361093539218296E-03
  0.58496108552049932E+01  0.47529710211094813E-02  0.17365838364360479E-02
  0.11135481308539209E+02  0.36805816620211797E-01  0.99722753633056712E-02
  0.40979024063365806E+02  0.12065001920089563E+00  0.38741480447768861E+00
  0.41211692828213529E+02  0.49856842054391524E-02  0.15868363817542221E-01
  0.43886841482720897E+02  0.48367090253332900E-02  0.12925480069435098E-01
  0.27831837696687280E+01  0.67755447299881831E-03  0.27767950129189587E-03
  0.42358111357733508E+01  0.21869985254153947E-02  0.86526172595249428E-03
  0.72635555636774729E+01  0.13468564463560855E-01  0.49283095122675084E-02
  0.41039586178632433E+02  0.92773190472334038E-01  0.29414803424113667E+00
  0.41448902282211392E+02  0.48048854725410784E-02  0.16111698047921678E-01
  0.43782749538029499E+02  0.62723787992343249E-02  0.16552943447625108E-01
  0.54841784907522637E+01  0.41237492723035741E-02  0.15229861925852308E-02
  0.54841784907523499E+01  0.41913225011413280E-02  0.15474493454956484E-02
  0.93658878050046184E+01  0.93876744942538712E-01  0.29144615621240808E-01
  0.41030624278421108E+02  0.92698790119497276E-01  0.30874488083955121E+00
  0.41030624278421115E+02  0.92589668566955052E-01  0.30845833304072101E+00
  0.44094681329368647E+02  0.85620589575156232E-02  0.20775841370576895E-01
  0.65664417604522809E+01  0.80058382349979459E-02  0.27361059127907605E-02
  0.66061099440958166E+01  0.84734324498948483E-02  0.29175655376980215E-02
  0.12294670382505975E+02  0.26222404234365004E-01  0.70770749756347163E-02
  0.40902806925127550E+02  0.10937149149581879E+00  0.36716431108850617E+00
  0.40975836281133404E+02  0.12387283196216757E+00  0.42029408260131801E+00
  0.44006164715149161E+02  0.46134526150220061E-02  0.11983873149967563E-01
  0.73789757119610266E+01  0.17753495310873370E-01  0.55931049323241040E-02
  0.77447272051448977E+01  0.25595454862593330E-01  0.80759146796337833E-02
  0.15679562796123120E+02  0.17380500238214202E-02  0.59395521753451759E-03
  0.40748837500370044E+02  0.74346638158810180E-01  0.25471030883843415E+00
  0.40950975482783321E+02  0.14160038078696544E+00  0.48883165735134992E+00
  0.43638123848268414E+02  0.60872247457605709E-02  0.18440080620218898E-01
  0.78771128516579765E+01  0.29320227456119816E-01  0.87543553035479022E-02
  0.87519026419434720E+01  0.43163315411144765E-01  0.12280525360589248E-01
  0.19009949739911271E+02  0.35662010957788369E-02  0.10062018726693636E-02
  0.40678939487900386E+02  0.44924242067296866E-01  0.16145297825211213E+00
  0.40792052110689006E+02  0.11731947870459102E+00  0.38602663113449565E+00
  0.43041604808077878E+02  0.27840557038357520E-01  0.13907538595686639E+00
  0.81479697128055211E+01  0.32306401274155669E-01  0.93891632697624960E-02
  0.95048425413139714E+01  0.82790003401045309E-01  0.20877441276449041E-01
  0.22087949229231391E+02  0.67275306702409944E-02  0.14080811722955886E-02
  0.40306577549835893E+02  0.73500310718029559E-02  0.26643903198689350E-01
  0.40752084649926921E+02  0.74250393784416127E-01  0.26586951836329970E+00
  0.42455370030839447E+02  0.13960737763171428E-01  0.77836958095113498E-01
  0.83168866309721654E+01  0.36542567286631300E-01  0.10575272181011924E-01
  0.99958578921987780E+01  0.55196261054977963E-01  0.13284461767154285E-01
  0.24706280785449003E+02  0.14982866079494953E-01  0.19635116185660897E-02
  0.39473390009986261E+02  0.45355173634611494E-02  0.22766548417445721E-01
  0.40912531868885715E+02  0.10755705771998851E+00  0.39453029185980065E+00
  0.42129930309915210E+02  0.65059490346087790E-02  0.36466434188533473E-01
  0.84431965640811093E+01  0.37880441367721715E-01  0.10983711443290675E-01
  0.10268494864003523E+02  0.50181915759104571E-01  0.11702212676975091E-01
  0.26583918924964966E+02  0.51001832774848710E-01  0.33395383330419894E-02
  0.38627807601841539E+02  0.38958121221148879E-02  0.32205309002207763E-01
  0.41036270275655077E+02  0.85557390901665240E-01  0.32244089083081856E+00
  0.42052668815088964E+02  0.63265447856837376E-02  0.34706058410992981E-01
  0.85004000169611409E+01  0.38021466248863815E-01  0.11042431337900484E-01
  0.10348238051455679E+02  0.49710922693792958E-01  0.11474420733077546E-01
  0.27415495876758296E+02  0.30041121801830807E-01  0.13184792678538411E-02
  0.38178136118601543E+02  0.29579284374530055E-02  0.32720117650842935E-01
  0.41038370761195466E+02  0.84667727365316706E-01  0.31711256260547022E+00
  0.42107721102574786E+02  0.66342892766894966E-02  0.35700079840877808E-01
  0.84512242302331320E+01  0.37807046264107837E-01  0.11048932650172845E-01
  0.10263097481338699E+02  0.50344463597433185E-01  0.11626301290759589E-01
  0.27009893954158127E+02  0.35171456252915213E-01  0.18319358605260010E-02
  0.38325347888165354E+02  0.33752566198306192E-02  0.33600364037113660E-01
  0.40934612624795349E+02  0.11607808837090119E+00  0.42177984812734459E+00
  0.42213702040958438E+02  0.71251460972730227E-02  0.38758841103458563E-01
  0.82908070239777079E+01  0.35680932671095775E-01  0.10595641224138854E-01
  0.10099174707289968E+02  0.51905603256107866E-01  0.12047022596143805E-01
  0.25437541598329606E+02  0.19559915543291728E-01  0.20152473953292086E-02
  0.38923654933688731E+02  0.35619832901105678E-02  0.24527030663657027E-01
  0.40812418606188466E+02  0.11288900952187352E+00  0.38761074320637223E+00
  0.42371704616148357E+02  0.10469268195719658E-01  0.58723867270452285E-01
  0.79915545774605423E+01  0.29614090806821827E-01  0.91000020124816835E-02
  0.99384026732833188E+01  0.59193866926369298E-01  0.13833322658443887E-01
  0.22967168254780493E+02  0.88392738529612866E-02  0.15748951990808696E-02
  0.39655776894519740E+02  0.43823125241111956E-02  0.21099896068038082E-01
  0.40752883091760204E+02  0.76996315260855985E-01  0.26322789822388343E+00
  0.42637046607957487E+02  0.19300947364983240E-01  0.10835224565191778E+00
  0.74547177009463814E+01  0.18062066735249349E-01  0.58428815293728028E-02
  0.97027109833477194E+01  0.75217140512377795E-01  0.18033534221814165E-01
  0.19936530068932665E+02  0.41973042269423631E-02  0.10754012698560567E-02
  0.40319777891902149E+02  0.70954855620649175E-02  0.27054812038000191E-01
  0.40775402967763014E+02  0.89495364505833383E-01  0.29658291514717838E+00
  0.42994081963571745E+02  0.25793865382781878E-01  0.13783092872085401E+00
  0.65822537593926986E+01  0.80259263916959665E-02  0.27898857548094712E-02
  0.91294501747388690E+01  0.64011023854781676E-01  0.16952432131270102E-01
  0.16701707270944890E+02  0.22556232687946042E-02  0.72393359177165973E-03
  0.40840605698972730E+02  0.10429831256822591E+00  0.34696048728217427E+00
  0.40843831987667201E+02  0.10428085912605968E+00  0.33392320695443650E+00
  0.43350571528138730E+02  0.13367816456830604E-01  0.57998510550131652E-01
  0.54214219177507150E+01  0.39072737369284212E-02  0.14533376702922114E-02
  0.79094454891624206E+01  0.29126749689828934E-01  0.91428889790746374E-02
  0.13629164170922962E+02  0.36574204550907582E-01  0.87789617573934726E-02
  0.40915767501382362E+02  0.11822402939222108E+00  0.37981886702000278E+00
  0.41224258590824697E+02  0.41156457126957134E-02  0.13358060699174478E-01
  0.43580561490527749E+02  0.58447815324161054E-02  0.17805699422444775E-01
  0.42935720188641930E+01  0.21794302601998881E-02  0.85361093539224520E-03
  0.59186314365091093E+01  0.48204676780780453E-02  0.17590524891937130E-02
  0.11072531878149263E+02  0.37250434827263028E-01  0.10135236487717419E-01
  0.40979024063365799E+02  0.12065001920090637E+00  0.38741480447772431E+00
  0.41638507760000721E+02  0.46218567395969103E-02  0.16496803162768903E-01
  0.43488836308564892E+02  0.67059017039761189E-02  0.20770337035259805E-01
  0.74143147231451341E+01  0.18446517574427022E-01  0.57967405795122011E-02
  0.74143147231451740E+01  0.18253786474651309E-01  0.57271560772799409E-02
  0.13907788705513150E+02  0.22334189377034564E-01  0.57247139326866373E-02
  0.40772632395174121E+02  0.85542872049715626E-01  0.29284815384702662E+00
  0.40772632395174135E+02  0.84964611057625136E-01  0.29000936969007013E+00
  0.44074914359786398E+02  0.71574008040320583E-02  0.18131475955990552E-01
  0.80441514072524676E+01  0.30535454089239768E-01  0.88705644290196315E-02
  0.83032745201695430E+01  0.36429314799319573E-01  0.10435749272110925E-01
  0.16400802778327773E+02  0.20740541009682326E-02  0.71101201821365933E-03
  0.40627318472544019E+02  0.33969987320748816E-01  0.12598653669088947E+00
  0.40698916889828638E+02  0.48203403577812907E-01  0.17393672563288615E+00
  0.43812373339841429E+02  0.50856083447992102E-02  0.14407932522541928E-01
  0.84248926114874507E+01  0.38510372346481379E-01  0.10575176552464548E-01
  0.94123593845839988E+01  0.10354657716440502E+00  0.25040761026842204E-01
  0.19023455394056977E+02  0.35271078334144297E-02  0.10415578351044437E-02
  0.40573409676163003E+02  0.24964081782832711E-01  0.96693259827415640E-01
  0.40639704126895651E+02  0.36398074578052553E-01  0.13363392340977151E+00
  0.43228564628466984E+02  0.23116359193560129E-01  0.10558960886238308E+00
  0.86464687057579876E+01  0.40737031160329951E-01  0.10861051996416838E-01
  0.10509263695167212E+02  0.48222651970750527E-01  0.10401477175511872E-01
  0.21517319868168460E+02  0.59444634097319104E-02  0.13977103697954182E-02
  0.40211248470651213E+02  0.67808246464984472E-02  0.25861695496249667E-01
  0.40664866668922976E+02  0.40758411534892756E-01  0.15665857557644561E+00
  0.42695453820749911E+02  0.20991086139301736E-01  0.11410735516591529E+00
  0.88179529028277059E+01  0.46783406301798988E-01  0.12351359459762512E-01
  0.11394761066209446E+02  0.37432669068275699E-01  0.74729752085787955E-02
  0.23748212094002515E+02  0.10452748523652838E-01  0.17326638927670729E-02
  0.39289532962657901E+02  0.42091173725486699E-02  0.21633673024473318E-01
  0.40839064673592247E+02  0.96962983314478474E-01  0.36118842689831387E+00
  0.42502317429894660E+02  0.14789122584213997E-01  0.88909692198934326E-01
  0.89720070833706504E+01  0.55157212850668082E-01  0.14482975705255981E-01
  0.11968935570291400E+02  0.28570678699626661E-01  0.56873547288123138E-02
  0.25515124382733180E+02  0.20385961281748188E-01  0.20385580659875091E-02
  0.38302404205505624E+02  0.39088433542444866E-02  0.31774701723639068E-01
  0.40964687000475699E+02  0.13301764906367855E+00  0.51900825640075909E+00
  0.42515885075759407E+02  0.14825710389511471E-01  0.90305396981121819E-01
  0.90599247896153408E+01  0.60222540822043910E-01  0.15726713092745089E-01
  0.12205992755005553E+02  0.29011703626947209E-01  0.56642232681339468E-02
  0.26525956140674765E+02  0.54028689692791905E-01  0.31816520567116082E-02
  0.37660545489554195E+02  0.31419254712573359E-02  0.38698139026515241E-01
  0.40955136961477315E+02  0.13747353273119509E+00  0.53146494580150638E+00
  0.42617973381618249E+02  0.17413767255646629E-01  0.10411067216434350E+00
  0.90351116866350800E+01  0.58471608451080265E-01  0.15385015934650177E-01
  0.12139798586233098E+02  0.28976368017077762E-01  0.56293189395216405E-02
  0.26524361849116087E+02  0.54485333502194581E-01  0.30475586323643199E-02
  0.37552600731594836E+02  0.28899845847801245E-02  0.38907163841927800E-01
  0.40834399557868821E+02  0.10069795022969112E+00  0.36663125423860971E+00
  0.42766192591482010E+02  0.20181843155697921E-01  0.12260280453083870E+00
  0.89039603663249238E+01  0.51183284963299609E-01  0.13797971570232329E-01
  0.11898841148646548E+02  0.28768806671048648E-01  0.55883868065989299E-02
  0.25458348350473631E+02  0.20321860979477600E-01  0.18464496172851718E-02
  0.37918743555634322E+02  0.32303076266778285E-02  0.33241686130180713E-01
  0.40702266129676396E+02  0.47893882520942906E-01  0.17636084141653829E+00
  0.42937459225125338E+02  0.22706569682195903E-01  0.13798168261711480E+00
  0.86670055269197022E+01  0.40450399535957707E-01  0.11406621743160145E-01
  0.11656741278322368E+02  0.34889213471457285E-01  0.65903818464929749E-02
  0.23519967298965195E+02  0.10188298364793659E-01  0.15563266185456893E-02
  0.38573620208466188E+02  0.42848434520169915E-02  0.31205028657945260E-01
  0.40645913090623871E+02  0.38262446427257187E-01  0.13947307247213253E+00
  0.43100374080550850E+02  0.28244786484408424E-01  0.16978838443201336E+00
  0.82450007450103566E+01  0.34442510724931596E-01  0.10342893735642872E-01
  0.11380227039681134E+02  0.38319075576169460E-01  0.74238887658318728E-02
  0.21090667825837489E+02  0.56174704370206786E-02  0.12504459710037832E-02
  0.39396203664884460E+02  0.44501566093606802E-02  0.22192996566786916E-01
  0.40681386846576615E+02  0.46062612319461155E-01  0.16117116156705280E+00
  0.43189776336842250E+02  0.26339498114224667E-01  0.14935421943649280E+00
  0.75368651322655369E+01  0.23135833092141692E-01  0.74667085312115234E-02
  0.10658932003905608E+02  0.45811334919921544E-01  0.97984743732010895E-02
  0.18688141847128794E+02  0.33117752867282304E-02  0.93503439092115076E-03
  0.40242450886025566E+02  0.68856565358077788E-02  0.26753438358907554E-01
  0.40764325407276019E+02  0.84017051416106242E-01  0.27902050237390918E+00
  0.43220857934343357E+02  0.22960733443558309E-01  0.11735357437669433E+00
  0.65822537593925992E+01  0.80259263916955381E-02  0.27898857548093276E-02
  0.90923542598688751E+01  0.62374973626539779E-01  0.16621291890967449E-01
  0.16724208816171835E+02  0.22650870488813597E-02  0.72674722745663775E-03
  0.40773542266240028E+02  0.87013764038741392E-01  0.29110335689603023E+00
  0.40843831987667208E+02  0.10428085912605534E+00  0.33392320695442568E+00
  0.43412776880566796E+02  0.10552380737153000E-01  0.43349490567895749E-01
  0.56825907138055509E+01  0.45117177006676759E-02  0.16519037477636710E-02
  0.69802932291007682E+01  0.10510556237815225E-01  0.35153452229149014E-02
  0.15115525514518801E+02  0.15829209933915023E-02  0.54685377327538885E-03
  0.40902142719383185E+02  0.11172436290344907E+00  0.36069714912285933E+00
  0.40975677376880242E+02  0.12346576213335235E+00  0.41852484529102801E+00
  0.43699472785750999E+02  0.62136647019915836E-02  0.18471111934323502E-01
  0.85140628263760387E+01  0.38929359253819351E-01  0.10439326298689128E-01
  0.85140628263761045E+01  0.39062761266489526E-01  0.10479954452224069E-01
  0.18304217594613942E+02  0.28616363575423918E-02  0.91227894444761656E-03
  0.40511706585431945E+02  0.20499744154594483E-01  0.81432178212697742E-01
  0.40511706585431952E+02  0.20987143266908363E-01  0.82998982283497405E-01
  0.43725038233519065E+02  0.64314563890619462E-02  0.18798132539175200E-01
  0.87845844218772715E+01  0.45994183371470938E-01  0.11606938434602280E-01
  0.91479146145245682E+01  0.67790969773252038E-01  0.16146663972455799E-01
  0.20469721026807186E+02  0.45344978181002934E-02  0.12625009813734779E-02
  0.40482726555419823E+02  0.16305032205157808E-01  0.66171251045972185E-01
  0.40490881165944685E+02  0.17089981280022294E-01  0.70651137338027040E-01
  0.43212539512938108E+02  0.26309907481555393E-01  0.11816649342847640E+00
  0.89542567296978479E+01  0.55612279456455541E-01  0.13633436806509839E-01
  0.10240731476355577E+02  0.52645345801316336E-01  0.10930232443579824E-01
  0.22468146213794686E+02  0.71774606023850343E-02  0.16347155463159143E-02
  0.40220993984481595E+02  0.65735451613973227E-02  0.26504156801948169E-01
  0.40606070017738489E+02  0.28333305693177789E-01  0.11654542895688234E+00
  0.42630533973356272E+02  0.19789095644711548E-01  0.10408515533519420E+00
  0.91165078941074196E+01  0.64436747377342049E-01  0.15567282988116394E-01
  0.11488560074420720E+02  0.34736370040589735E-01  0.64613829007261654E-02
  0.24188378147669507E+02  0.11798530256865853E-01  0.19919567490458531E-02
  0.39300566810033104E+02  0.42535324560629938E-02  0.21659505692795723E-01