  0.73316259132770345D-06  0.31869428204760755D-03  0.13091384236831605D-03
  0.99615728285689043D-06  0.31884838832117463D-03  0.13096998118527912D-03
  0.10685429186264781D-05  0.31842794499782845D-03  0.13081682523862653D-03
  0.41099732667620380D+02  0.69381295585545677D-01  0.21152082394873006D+00
  0.41099732667620387D+02  0.69220649476859866D-01  0.21111269970968449D+00
  0.41099732667620394D+02  0.69325984317814157D-01  0.21138030470902669D+00
  0.20011656619842095D+01  0.92918797566314841D-03  0.37034786839253831D-03
  0.20011656619844786D+01  0.92795589986644476D-03  0.36990406664678033D-03
  0.47364613678335834D+01  0.35757073593211150D-02  0.13578857929874453D-02
  0.41086910012269243D+02  0.70964760827290502D-01  0.21965007253962313D+00
  0.41086910012269250D+02  0.71281834938445685D-01  0.22046437704854488D+00
  0.44096662994699138D+02  0.67875133572947340D-02  0.18426872222543658D-01
  0.38279540456409888D+01  0.23069750801871327D-02  0.86939258896788052D-03
  0.38279540456410936D+01  0.23056936752438232D-02  0.86894455547947532D-03
  0.93188593503441695D+01  0.70768157279753385D-01  0.21506452547107667D-01
  0.41037220320834528D+02  0.82946785190648867D-01  0.26363749220249189D+00
  0.41037220320834528D+02  0.83231854305246614D-01  0.26441205458469774D+00
  0.44121715916726693D+02  0.61840793687368781D-02  0.17209479494709790D-01
  0.53242704461202583D+01  0.49490157610787905D-02  0.17396339030114542D-02
  0.53242704461203560D+01  0.49504270632081647D-02  0.17400416782766841D-02
  0.13658190667508515D+02  0.27972535608598199D-01  0.69916248770187832D-02
  0.40943722223519273D+02  0.90760177196915537D-01  0.29570332233467544D+00
  0.40943722223519288D+02  0.91078127954996646D-01  0.29672714078856582D+00
  0.43967759306978174D+02  0.53178589876759028D-02  0.17072208292755447D-01
  0.63934817700560744D+01  0.96268931323717777D-02  0.31597590125629679D-02
  0.63934817700561766D+01  0.96368167440706153D-02  0.31626368117802501D-02
  0.17719945019150561D+02  0.29384038287570500D-02  0.83322780006091256D-03
  0.40844220972068698D+02  0.79849560922580401D-01  0.26387259920138750D+00
  0.40844220972068705D+02  0.79830688081194937D-01  0.26375890185109813D+00
  0.43454846265796775D+02  0.14087499899435680D-01  0.60121708739562900D-01
  0.70428731748971147D+01  0.16130530356924588D-01  0.50398949850648722D-02
  0.70428731748971760D+01  0.16149682679988061D-01  0.50452223438719988D-02
  0.21443345780133512D+02  0.59704028715575775D-02  0.12567252055220139D-02
  0.40810459094712378D+02  0.77641685243397082D-01  0.26127988307623967D+00
  0.40810459094712392D+02  0.77625135932617481D-01  0.26117969012589620D+00
  0.42510450052728963D+02  0.13216327239900866D-01  0.66745002036842499D-01
  0.73833469565557506D+01  0.21596993393791581D-01  0.65914351848929938D-02
  0.73833469565558154D+01  0.21618689610368891D-01  0.65973222199944845D-02
  0.24673953613699734D+02  0.14200485179493870D-01  0.17839716520907474D-02
  0.40883256625129206D+02  0.80410587721403595D-01  0.27882029756856547D+00
  0.40883256625129228D+02  0.80463624971554321D-01  0.27903387979211669D+00
  0.41246895989327243D+02  0.18433706638934771D-01  0.95446942578341354D-01
  0.75552827976504693D+01  0.25625131138116635D-01  0.77854743310060504D-02
  0.75552827976505590D+01  0.25646427406601956D-01  0.77912090554397026D-02
  0.27159809933040442D+02  0.26543364922322843D-01  0.17365036217733599D-02
  0.39967304606253478D+02  0.32421250087111904D-02  0.25027629832690221D-01
  0.41022729214423833D+02  0.80019032911193971D-01  0.28372054312608846D+00
  0.41022729214423833D+02  0.80386319623625857D-01  0.28485368696548002D+00
  0.76364927783707230D+01  0.29006776339793636D-01  0.88454693054264635D-02
  0.76364927783707648D+01  0.29031213350081905D-01  0.88520443089078592D-02
  0.28566958280070136D+02  0.19743291081802103D-01  0.78307642153836634D-03
  0.39117051024689822D+02  0.20128225877406635D-02  0.25545589148978202D-01
  0.41131837963171343D+02  0.52371426516234720D-01  0.18534889612388933D+00
  0.41131837963171343D+02  0.52094204333043459D-01  0.18453453114693488D+00
  0.76364927783707275D+01  0.29007782536198894D-01  0.88457400318692272D-02
  0.76364927783707888D+01  0.29030207153677132D-01  0.88517735824651476D-02
  0.28566958280070143D+02  0.19743291081802061D-01  0.78307642153836168D-03
  0.39117051024689822D+02  0.20128225877406609D-02  0.25545589148978181D-01
  0.41131837963171328D+02  0.52094223053714993D-01  0.18453458614058502D+00
  0.41131837963171343D+02  0.52371407795567697D-01  0.18534884113025346D+00
  0.75552827976504728D+01  0.25624119145026627D-01  0.77852018184057653D-02
  0.75552827976505021D+01  0.25647439399689598D-01  0.77914815680391871D-02
  0.27159809933040446D+02  0.26543364922322826D-01  0.17365036217733567D-02
  0.39967304606253478D+02  0.32421250087111852D-02  0.25027629832690218D-01
  0.41022729214423833D+02  0.80319677901960235D-01  0.28464808558161475D+00
  0.41022729214423848D+02  0.80085674632856402D-01  0.28392614450994785D+00
  0.73833469565557648D+01  0.21596366810609825D-01  0.65912651682833740D-02
  0.73833469565558278D+01  0.21619316193551084D-01  0.65974922366042587D-02
  0.24673953613699727D+02  0.14200485179493823D-01  0.17839716520907437D-02
  0.40883256625129206D+02  0.80484496459002672D-01  0.27911792975106720D+00
  0.40883256625129214D+02  0.80389716233954467D-01  0.27873624760960658D+00
  0.41246895989327228D+02  0.18433706638936710D-01  0.95446942578351235D-01
  0.70428731748970943D+01  0.16130823082533177D-01  0.50399764088349093D-02
  0.70428731748971618D+01  0.16149389954378948D-01  0.50451409201018212D-02
  0.21443345780133534D+02  0.59704028715576131D-02  0.12567252055220176D-02
  0.40810459094712385D+02  0.77597932793618304D-01  0.26101499669599659D+00
  0.40810459094712392D+02  0.77668888382397133D-01  0.26144457650614189D+00
  0.42510450052728970D+02  0.13216327239900953D-01  0.66745002036843165D-01
  0.63934817700560664D+01  0.96275809547337020D-02  0.31599584777088087D-02
  0.63934817700561659D+01  0.96361289217085765D-02  0.31624373466343672D-02
  0.17719945019150543D+02  0.29384038287570413D-02  0.83322780006091029D-03
  0.40844220972068683D+02  0.79856246470125958D-01  0.26391287554481829D+00
  0.40844220972068698D+02  0.79824002533648838D-01  0.26371862550766301D+00
  0.43454846265796775D+02  0.14087499899435691D-01  0.60121708739562886D-01
  0.53242704461202690D+01  0.49488535536748885D-02  0.17395870355365404D-02
  0.53242704461203774D+01  0.49505892706121664D-02  0.17400885457516365D-02
  0.13658190667508507D+02  0.27972535608598251D-01  0.69916248770187936D-02
  0.40943722223519281D+02  0.90729829341726603D-01  0.29560560061712005D+00
  0.40943722223519288D+02  0.91108475810185663D-01  0.29682486250612111D+00
  0.43967759306978174D+02  0.53178589876759020D-02  0.17072208292755447D-01
  0.38279540456409555D+01  0.23066164291054366D-02  0.86926718934608835D-03
  0.38279540456410386D+01  0.23060523263254105D-02  0.86906995510122780D-03
  0.93188593503441322D+01  0.70768157279753455D-01  0.21506452547107743D-01
  0.41037220320834535D+02  0.83080464346453747D-01  0.26400071234830219D+00
  0.41037220320834535D+02  0.83098175149439707D-01  0.26404883443887633D+00
  0.44121715916726693D+02  0.61840793687368834D-02  0.17209479494709797D-01
  0.20011656619843712D+01  0.92917188539892932D-03  0.37034207257432173D-03
  0.20011656619844733D+01  0.92797199013073780D-03  0.36990986246502585D-03
  0.47364613678336083D+01  0.35757073593211653D-02  0.13578857929874629D-02
  0.41086910012269250D+02  0.71241875943758942D-01  0.22036175501665659D+00
  0.41086910012269257D+02  0.71004719821972734D-01  0.21975269457149754D+00
  0.44096662994699152D+02  0.67875133572944000D-02  0.18426872222542752D-01
  0.28992306767529792D+01  0.14562782404431618D-02  0.56793689747534600D-03
  0.28992306767530147D+01  0.14547758195979342D-02  0.56740299677066649D-03
  0.47184798050377834D+01  0.35354711407275443D-02  0.13508891729912041D-02
  0.41108962927939984D+02  0.74190220629515621D-01  0.22443175706895180D+00
  0.41108962927939999D+02  0.74059521913091758D-01  0.22409399060046503D+00
  0.44067256155728863D+02  0.86469889119981901D-02  0.22898627248771643D-01
  0.41420931206075471D+01  0.26948140236780259D-02  0.10079439052733212D-02
  0.43867693062898754D+01  0.30482241696601397D-02  0.11248452366141627D-02
  0.83054301848201533D+01  0.34228167002861132D-01  0.11262701584290808D-01
  0.41069864595241235D+02  0.74382379737716040D-01  0.23837681810525771D+00
  0.41083451094621708D+02  0.71356001347192277D-01  0.22666666236785640D+00
  0.44073567700556133D+02  0.83603603677367948D-02  0.22538181476287202D-01
  0.54650180331597591D+01  0.53284628829718510D-02  0.18762066832120499D-02
  0.57268412958250199D+01  0.62136670749206712D-02  0.21328843964148296D-02
  0.12439207559555053D+02  0.25655315290619183D-01  0.68441753479611287D-02
  0.40956058948765907D+02  0.90403074956251814D-01  0.29882288865798945D+00
  0.41037608116443309D+02  0.81929055875866102D-01  0.26726118563676621D+00
  0.43957210108094543D+02  0.54296153177579532D-02  0.17239751610501401D-01
  0.66396855265899166D+01  0.11533669400946828D-01  0.37758726477749873D-02
  0.67077766375505883D+01  0.12273199775957699D-01  0.39158459959595356D-02
  0.16426804596925894D+02  0.29892929193680996D-02  0.86813078183498418D-03
  0.40821579900111679D+02  0.78568520492994731D-01  0.26247984692392162D+00
  0.40946743010551089D+02  0.90176663600847973D-01  0.29938520956251669D+00
  0.43568944804499765D+02  0.11031071028330208D-01  0.44398931125384927D-01
  0.73058506210293004D+01  0.20249120401548772D-01  0.61425393696969421D-02
  0.74878118483099438D+01  0.23503521670951627D-01  0.72272515433817117D-02
  0.20143003274805217D+02  0.45522969711172786D-02  0.10806194810401087D-02
  0.40762925281292269D+02  0.66740650850913366D-01  0.22926227199428204D+00
  0.40801051099606994D+02  0.77632351120011378D-01  0.25640894996137481D+00
  0.42843580271324946D+02  0.18165224076378855D-01  0.90361010222267793D-01
  0.76187014991060851D+01  0.28863951773127967D-01  0.86078679617609174D-02
  0.80072020061224016D+01  0.30624838937873204D-01  0.89393790427437034D-02
  0.23452333802741514D+02  0.97716301674278527D-02  0.15379000794358002D-02
  0.40529352240428103D+02  0.28839792770917638D-01  0.10628228952753022D+00
  0.40832853298449656D+02  0.76729890544662116D-01  0.26784179593806562D+00
  0.41959808135402547D+02  0.64321695515259488D-02  0.34280567127100432D-01
  0.77849552422393744D+01  0.27500334515997236D-01  0.80872297113572626D-02
  0.82958844588560101D+01  0.35966233434354671D-01  0.10226503105092904D-01
  0.26128525292146637D+02  0.25267237486313820D-01  0.21097849962153480D-02
  0.39825892909807948D+02  0.36500091240204363D-02  0.21521144583283806D-01
  0.40983106556270414D+02  0.84551500171135371D-01  0.30362961395442667D+00
  0.41483303487561422D+02  0.66194877135412602D-02  0.30461292147507198D-01
  0.78823540960633629D+01  0.28658023823900026D-01  0.84318422235490735D-02
  0.84420979447739875D+01  0.38880510941180876D-01  0.10945750900965024D-01
  0.27867218013369648D+02  0.24274156251908676D-01  0.11635182812594661D-02
  0.38998311283944211D+02  0.24610452732782232D-02  0.24910211593043831D-01
  0.41102124655956310D+02  0.63897846181939277D-01  0.22614404540468649D+00
  0.41443130417911810D+02  0.76462753670940220D-02  0.32493690732388593D-01
  0.79065597966538794D+01  0.28981669019528648D-01  0.85431001212641355D-02
  0.84743844506433419D+01  0.39559717776129773D-01  0.11104710582894958D-01
  0.28340003879741033D+02  0.21612595805037851D-01  0.85582718741013231D-03
  0.38726827963480829D+02  0.22126692900513098D-02  0.27118686000712790D-01
  0.41107987394900348D+02  0.67985475159326889D-01  0.23558304074787911D+00
  0.41488428330796090D+02  0.69137383503845070D-02  0.29414248466696481D-01
  0.78368799037223136D+01  0.27990942043800173D-01  0.82875599039374005D-02
  0.84094219495304099D+01  0.38302328135184402D-01  0.10736436545079593D-01
  0.27418629357283550D+02  0.26035516991006223D-01  0.14750132468193504D-02
  0.39208355528017869D+02  0.26627939630192239D-02  0.23394905144961169D-01
  0.41007554830431012D+02  0.82048238158967668D-01  0.29258119204042127D+00
  0.41517958753696362D+02  0.64479167516021717D-02  0.28493964221283023D-01
  0.76617610287176472D+01  0.28994772626796145D-01  0.87644321924667517D-02
  0.82835116185153108D+01  0.35908442741352589D-01  0.10074750997473137D-01
  0.25325107920743008D+02  0.18308602753413148D-01  0.18984848405602308D-02
  0.40042298875569692D+02  0.47937817170824650D-02  0.24287108756700357D-01
  0.40880280456964080D+02  0.79889101400539300D-01  0.27787360084554613D+00
  0.41675681855906319D+02  0.55916562047301664D-02  0.27860633385254834D-01
  0.73238059958922186D+01  0.20435974865491854D-01  0.63094577905223404D-02
  0.80863646726973020D+01  0.32235906323999718D-01  0.91684041867266478D-02
  0.22393660538790570D+02  0.74538898291747965D-02  0.13760850603586974D-02
  0.40555649751660383D+02  0.31166559464496743D-01  0.11379130443223603D+00
  0.40811181035313410D+02  0.77549392915355272D-01  0.26143902453510670D+00
  0.42305123277493074D+02  0.98202990499152657D-02  0.52049469910746438D-01
  0.66995419780317684D+01  0.12130776276204243D-01  0.39270880318026963D-02
  0.77045542686646238D+01  0.27952959509346544D-01  0.83257977997603181D-02
  0.18916845288741467D+02  0.35852778783845014D-02  0.93738559162000060D-03
  0.40770962624886799D+02  0.69885120613853172D-01  0.23590031192627617D+00
  0.40829616286339032D+02  0.79434644608256819D-01  0.26215392241697583D+00
  0.43133320982985310D+02  0.23352273653860511D-01  0.11334974555512377D+00
  0.56825907138053369D+01  0.60442109047459261D-02  0.20909772103498373D-02
  0.69874700211814016D+01  0.15343487616456025D-01  0.48683792400830020D-02
  0.15113678525918262D+02  0.71135337241374436D-02  0.18941673724693212D-02
  0.40902142719383150D+02  0.86142914078181004D-01  0.28015695291342263D+00
  0.40975128203317063D+02  0.88757485533336455D-01  0.30012352030143924D+00
  0.43699479587645939D+02  0.84245736021630671D-02  0.31327965261990900D-01
  0.42935720188638822D+01  0.29107048675152377D-02  0.10764327457843013D-02
  0.58496108552049932D+01  0.66543628859425169D-02  0.22960189725757308D-02
  0.11135481308539209D+02  0.34178224561342438D-01  0.95522715826554389D-02
  0.40979024063365806D+02  0.91490155535382214D-01  0.29174227316688911D+00
  0.41211692828213529D+02  0.32100182034059593D-01  0.10615580557564634D+00
  0.43886841482720897D+02  0.60542404383004079D-02  0.19553598305233462D-01
  0.27831837696687280D+01  0.13742618012283080D-02  0.53608584538605126D-03
  0.42358111357733508D+01  0.28195879574366960D-02  0.10541105397163829D-02
  0.72635555636774729D+01  0.18524681067865600D-01  0.64563341954536517D-02
  0.41039586178632433D+02  0.83157839095689745D-01  0.26034135957954169D+00
  0.41448902282211392D+02  0.87534777683147668D-02  0.29416172024808097D-01
  0.43782749538029499D+02  0.75859695661206327D-02  0.24567098995918503D-01
  0.54841784907522637D+01  0.54011519686066089D-02  0.18866219026167240D-02
  0.54841784907523499D+01  0.54002112084860039D-02  0.18863449092343882D-02
  0.93658878050046184D+01  0.70149096602986835D-01  0.21717022266254403D-01
  0.41030624278421108D+02  0.82617456758707297D-01  0.27239498584041855D+00
  0.41030624278421115D+02  0.82587026682544612D-01  0.27230852623867624D+00
  0.44094681329368647D+02  0.69089271193942831D-02  0.18825532772127784D-01
  0.65664417604522809D+01  0.10976869135394439D-01  0.35495561783741771D-02
  0.66061099440958166D+01  0.11264640639444634D-01  0.36701756556519337D-02
  0.12294670382505975D+02  0.25968381746508805D-01  0.70850079820800145D-02
  0.40902806925127550D+02  0.84151614585041709D-01  0.28455267636037962D+00
  0.40975836281133404D+02  0.88771455917345254D-01  0.30060933379529142D+00
  0.44006164715149161D+02  0.55276815339203502D-02  0.16660189515401214D-01
  0.73789757119610266D+01  0.21655444092477050D-01  0.65045052168304180D-02
  0.77447272051448977D+01  0.27175502264302331D-01  0.81737916087140407D-02
  0.15679562796123120D+02  0.42023606184267885D-02  0.11890759325460054D-02
  0.40748837500370044D+02  0.62152949551488750D-01  0.21569317654783446D+00
  0.40950975482783321D+02  0.88342959558615611D-01  0.30421660242656029D+00
  0.43638123848268414D+02  0.96095293209996265D-02  0.36698790988651392D-01
  0.78771128516579765D+01  0.28966967021083267D-01  0.82097579169963537D-02
  0.87519026419434720D+01  0.46066099940132686D-01  0.12561339321144135D-01
  0.19009949739911271D+02  0.36388215328812049D-02  0.95184622533364736D-03
  0.40678939487900386D+02  0.46160202111098073D-01  0.16722939751507204D+00
  0.40792052110689006D+02  0.75332439054398362D-01  0.25330569397338609D+00
  0.43041604808077878D+02  0.21413647638367134D-01  0.10584083584147112D+00
  0.81479697128055211D+01  0.33667593907546291D-01  0.92892719603407479D-02
  0.95048425413139714D+01  0.79893515616489913D-01  0.20118263265351058D-01
  0.22087949229231391D+02  0.69522039951073330D-02  0.13261193747149986D-02
  0.40306577549835893D+02  0.11163091458428347D-01  0.42703323056040694D-01
  0.40752084649926921D+02  0.61331348901345818D-01  0.22234640579521034D+00
  0.42455370030839447D+02  0.11714216753764994D-01  0.64021280581944062D-01
  0.83168866309721654D+01  0.36814956624418048D-01  0.10108680919445605D-01
  0.99958578921987780D+01  0.47057600616351079D-01  0.11465299073942684D-01
  0.24706280785449003D+02  0.14633069461021747D-01  0.17050680971965873D-02
  0.39473390009986261D+02  0.35830281086750527D-02  0.20376958808778729D-01
  0.40912531868885715D+02  0.80806546963539408D-01  0.29810771880553877D+00
  0.42129930309915210D+02  0.75801711672925723D-02  0.41846915583015606D-01
  0.84431965640811093D+01  0.39223432113243278D-01  0.10790740510946091D-01
  0.10268494864003523D+02  0.44593877358263763D-01  0.10625740316854582D-01
  0.26583918924964966D+02  0.30384770868779470D-01  0.20115336211422737D-02
  0.38627807601841539D+02  0.28814296037464986D-02  0.25697621941962640D-01
  0.41036270275655077D+02  0.75294164801574207D-01  0.27975607572960964D+00
  0.42052668815088964D+02  0.70435990771048913D-02  0.37883443178516260D-01
  0.85004000169611409D+01  0.40337125159227584D-01  0.11122264616626623D-01
  0.10348238051455679D+02  0.43929423401883785D-01  0.10387379922204910D-01
  0.27415495876758296D+02  0.26876110118653127D-01  0.12988379654231422D-02
  0.38178136118601543D+02  0.24605427801304316D-02  0.29241546023317740D-01
  0.41038370761195466D+02  0.75162804935867050D-01  0.27772347249603652D+00
  0.42107721102574786D+02  0.75637037040674690D-02  0.40269585688301163D-01
  0.84512242302331320D+01  0.39274610349701755D-01  0.10890734056521439D-01
  0.10263097481338699D+02  0.44799033342690392D-01  0.10566238294952974D-01
  0.27009893954158127D+02  0.28402334362509080D-01  0.15887108072869299D-02
  0.38325347888165354D+02  0.26151216608793293D-02  0.28074163864306841D-01
  0.40934612624795349D+02  0.83973168934482784D-01  0.30565410152480954D+00
  0.42213702040958438D+02  0.85747481630947166D-02  0.46277557894631359D-01
  0.82908070239777079D+01  0.35995576519980692D-01  0.10143234338588401D-01
  0.10099174707289968D+02  0.46472264179137530D-01  0.10939005040540257D-01
  0.25437541598329606D+02  0.19609888659877506D-01  0.17944905716559482D-02
  0.38923654933688731D+02  0.31286204716963763D-02  0.23411117070398672D-01
  0.40812418606188466D+02  0.75617959100491475D-01  0.26562350248475908D+00
  0.42371704616148357D+02  0.10407136271652573D-01  0.57715335806666282D-01
  0.79915545774605423D+01  0.30397902126203542D-01  0.88616893801797027D-02
  0.99384026732833188D+01  0.48218272578029929D-01  0.11398928607066724D-01
  0.22967168254780493D+02  0.87220873084363146D-02  0.14088557189514256D-02
  0.39655776894519740D+02  0.38463387882807579D-02  0.19897158525620073D-01
  0.40752883091760204D+02  0.63438419992843179D-01  0.21955197417869374D+00
  0.42637046607957487D+02  0.14161104690476951D-01  0.78791646117715913D-01
  0.74547177009463814D+01  0.22852424919707171D-01  0.70534558890286633D-02
  0.97027109833477194D+01  0.52014085972152534D-01  0.12649460199625149D-01
  0.19936530068932665D+02  0.43994192161895618D-02  0.10398102819955269D-02
  0.40319777891902149D+02  0.11689823778911755D-01  0.45065611611000526D-01
  0.40775402967763014D+02  0.71438639626818123D-01  0.23956792351249309D+00
  0.42994081963571745D+02  0.19612037434328686D-01  0.10339501252068647D+00
  0.65822537593926986D+01  0.11036873521757321D-01  0.36298010972428811D-02
  0.91294501747388690D+01  0.60593351510926187D-01  0.15682384689274940D-01
  0.16701707270944890D+02  0.28523169785696794D-02  0.82901764904768456D-03
  0.40840605698972730D+02  0.78155146225180702D-01  0.26655229899897848D+00
  0.40843831987667201D+02  0.80247352218269979D-01  0.26279046076394325D+00
  0.43350571528138730D+02  0.17023028122327904D-01  0.78213393093795949D-01
  0.54214219177507150D+01  0.52070443485715996D-02  0.18325035078066297D-02
  0.79094454891624206D+01  0.28903990645369301D-01  0.86103576481874940D-02
  0.13629164170922962D+02  0.28006955709754078D-01  0.70397676125822798D-02
  0.40915767501382362D+02  0.88383264470661776D-01  0.28543374771070890D+00
  0.41224258590824697D+02  0.28627460841949399D-01  0.98285404395600046D-01
  0.43580561490527749D+02  0.10970161979988020D-01  0.42478491437741593D-01
  0.42935720188641930D+01  0.29107048675156779D-02  0.10764327457844531D-02
  0.59186314365091093D+01  0.69350421134519126D-02  0.23900820283202155D-02
  0.11072531878149263D+02  0.34681367275905685D-01  0.97135483737720470D-02
  0.40979024063365799D+02  0.91490155535383144D-01  0.29174227316689155D+00
  0.41638507760000721D+02  0.68144185805707322D-02  0.24939500040173077D-01
  0.43488836308564892D+02  0.14050630316874164D-01  0.52877045500107231D-01
  0.74143147231451341D+01  0.22328877353411783D-01  0.66882003294236230D-02
  0.74143147231451740D+01  0.22338088636264235D-01  0.66906523189416622D-02
  0.13907788705513150D+02  0.25418703359619065D-01  0.65900686110192492D-02
  0.40772632395174121D+02  0.69237330444276879D-01  0.23969455371615703D+00
  0.40772632395174135D+02  0.69225879296368795D-01  0.23978055153748332D+00
  0.44074914359786398D+02  0.81492114363495276D-02  0.22614260611114489D-01
  0.80441514072524676D+01  0.31877282130497314D-01  0.87875805432785156D-02
  0.83032745201695430D+01  0.36673130483939650D-01  0.99693273187452126D-02
  0.16400802778327773D+02  0.29555301447764981D-02  0.90098456854967584D-03
  0.40627318472544019D+02  0.38234607767620096D-01  0.14199881486613902D+00
  0.40698916889828638D+02  0.49053462176096567D-01  0.17856625825123046D+00
  0.43812373339841429D+02  0.68462991964277102D-02  0.23686079542461224D-01
  0.84248926114874507D+01  0.39597193449901792D-01  0.10315843204322559D-01
  0.94123593845839988D+01  0.80046603271900621D-01  0.19319260101933900D-01
  0.19023455394056977D+02  0.35891137994318164D-02  0.98268072074284550D-03
  0.40573409676163003D+02  0.31497194288435844D-01  0.12211877363080578D+00
  0.40639704126895651D+02  0.39854126390374396D-01  0.14715488534192947D+00
  0.43228564628466984D+02  0.21924897566868468D-01  0.10314843293243042D+00
  0.86464687057579876D+01  0.44654314392658420D-01  0.11354697607881303D-01
  0.10509263695167212D+02  0.43285494020894683D-01  0.95881296654807806D-02
  0.21517319868168460D+02  0.60113862767635275D-02  0.12916366615452512D-02
  0.40211248470651213D+02  0.78612905696631760D-02  0.31720495108747471D-01
  0.40664866668922976D+02  0.42144601388649658D-01  0.16312550219808908D+00
  0.42695453820749911D+02  0.15221109694903772D-01  0.82513311081913773D-01
  0.88179529028277059D+01  0.48952067498470225D-01  0.12402975293359566D-01
  0.11394761066209446D+02  0.35940639097292323D-01  0.73883149263962921D-02
  0.23748212094002515D+02  0.10649870140160242D-01  0.15787284360102981D-02
  0.39289532962657901D+02  0.36039674043549302D-02  0.20639797037887868D-01
  0.40839064673592247D+02  0.72591251948122160D-01  0.27678423482665726D+00
  0.42502317429894660D+02  0.11846668056352832D-01  0.69126176176399684D-01
  0.89720070833706504D+01  0.53655113028437625D-01  0.13612017243615496D-01
  0.11968935570291400D+02  0.31361434232306314D-01  0.62374630620853320D-02
  0.25515124382733180D+02  0.20234170331911983D-01  0.18076361479321206D-02
  0.38302404205505624D+02  0.30493723601480332D-02  0.26814484721242236D-01
  0.40964687000475699D+02  0.81564875627513495D-01  0.31589254414426088D+00
  0.42515885075759407D+02  0.11867765158340942D-01  0.70644917905885063D-01
  0.90599247896153408D+01  0.57122251833281582D-01  0.14497041829897285D-01
  0.12205992755005553D+02  0.29579558802584373D-01  0.58208816210642981D-02
  0.26525956140674765D+02  0.31069003869983711D-01  0.18345143564909763D-02
  0.37660545489554195D+02  0.24187894158036135D-02  0.30957541067165743D-01
  0.40955136961477315D+02  0.82065120948273562D-01  0.31534099003672006D+00
  0.42617973381618249D+02  0.13215457993519017D-01  0.78995393709603429D-01
  0.90351116866350800D+01  0.55953686369281670D-01  0.14277174359026888D-01
  0.12139798586233098D+02  0.30094047812743843D-01  0.58809199002833219D-02
  0.26524361849116087D+02  0.31380910319808338D-01  0.17581639759326200D-02
  0.37552600731594836D+02  0.22701550721971799D-02  0.31628575310406228D-01
  0.40834399557868821D+02  0.73550462239896905D-01  0.27421296315649168D+00
  0.42766192591482010D+02  0.15045742462568783D-01  0.90261570178496980D-01
  0.89039603663249238D+01  0.51000290637565719D-01  0.13247198423015907D-01
  0.11898841148646548D+02  0.32305035986631481D-01  0.62582005680111722D-02
  0.25458348350473631D+02  0.20324636701204293D-01  0.16423878909536153D-02
  0.37918743555634322D+02  0.27025431356308021D-02  0.29393471873663715D-01
  0.40702266129676396D+02  0.49236094679594916D-01  0.18285708344816895D+00
  0.42937459225125338D+02  0.17092182662558259D-01  0.10280684753589317D+00
  0.86670055269197022D+01  0.44257982062452780D-01  0.11913208511479990D-01
  0.11656741278322368D+02  0.34622371035398621D-01  0.67032028129585539D-02
  0.23519967298965195D+02  0.10322160560003089D-01  0.14139298631693728D-02
  0.38573620208466188D+02  0.32263836899593056D-02  0.24949550530164365D-01
  0.40645913090623871D+02  0.41032282312040438D-01  0.15020248311865142D+00
  0.43100374080550850D+02  0.19961208233597857D-01  0.11873953550791468D+00
  0.82450007450103566D+01  0.35015118192836842D-01  0.99802205282271510D-02
  0.11380227039681134D+02  0.36386604811369135D-01  0.72674065874398274D-02
  0.21090667825837489D+02  0.56499857349947957D-02  0.11559860448992518D-02
  0.39396203664884460D+02  0.36628266246900515D-02  0.20247586303845152D-01
  0.40681386846576615D+02  0.47357286263346343D-01  0.16704819027070170D+00
  0.43189776336842250D+02  0.20568190106915473D-01  0.11620448473695208D+00
  0.75368651322655369D+01  0.24771640062040714D-01  0.76365832461720165D-02
  0.10658932003905608D+02  0.41894094010083330D-01  0.92050306100950920D-02
  0.18688141847128794D+02  0.34537721056200491D-02  0.90641471834573134D-03
  0.40242450886025566D+02  0.87284573898438050D-02  0.34607833844887512D-01
  0.40764325407276019D+02  0.68165237657398806D-01  0.22876221766799607D+00
  0.43220857934343357D+02  0.20730958872693248D-01  0.10837262207776541D+00
  0.65822537593925992D+01  0.11036873521756519D-01  0.36298010972426295D-02
  0.90923542598688751D+01  0.58274416632824080D-01  0.15131708560811721D-01
  0.16724208816171835D+02  0.28442399958706569D-02  0.82725775118973593D-03
  0.40773542266240028D+02  0.70509936628868911D-01  0.23866585475558025D+00
  0.40843831987667208D+02  0.80247352218269674D-01  0.26279046076394552D+00
  0.43412776880566796D+02  0.14959432600966839D-01  0.67638433460760525D-01
  0.56825907138055509D+01  0.60442109047466816D-02  0.20909772103500698D-02
  0.69802932291007682D+01  0.15253452147223453D-01  0.48414095382617673D-02
  0.15115525514518801D+02  0.70989566316858547D-02  0.18905542109359721D-02
  0.40902142719383185D+02  0.86142914078185459D-01  0.28015695291344028D+00
  0.40975677376880242D+02  0.88718922584276841D-01  0.29999484086350636D+00
  0.43699472785750999D+02  0.84245180767343660D-02  0.31328866189685327D-01
  0.85140628263760387D+01  0.41727509993345291D-01  0.10632916735253678D-01
  0.85140628263761045D+01  0.41728279375242469D-01  0.10633080737439082D-01
  0.18304217594613942D+02  0.31206909912803583D-02  0.92402266327868310D-03
  0.40511706585431945D+02  0.26008971880525117D-01  0.10359617199916639D+00
  0.40511706585431952D+02  0.25952114897734239D-01  0.10333524519228511D+00
  0.43725038233519065D+02  0.80922595311240398D-02  0.29333918656321824D-01
  0.87845844218772715D+01  0.48810350053659135D-01  0.11807822771789609D-01
  0.91479146145245682D+01  0.64255791470590809D-01  0.14985878013889125D-01
  0.20469721026807186D+02  0.46906777724830141D-02  0.12035718703753001D-02
  0.40482726555419823D+02  0.22849400280651719D-01  0.93559486077412046D-01
  0.40490881165944685D+02  0.23505269923986948D-01  0.97341158172194367D-01
  0.43212539512938108D+02  0.22920747239080212D-01  0.10513659218390160D+00
  0.89542567296978479D+01  0.54273044644730629D-01  0.12847382051472688D-01
  0.10240731476355577D+02  0.46623333037958049D-01  0.98781414482338511D-02
  0.22468146213794686D+02  0.72839891979755806D-02  0.15110558336351753D-02
  0.40220993984481595D+02  0.78303083913447112D-02  0.33141181946337826D-01
  0.40606070017738489D+02  0.33374525472427648D-01  0.13724712057622318D+00
  0.42630533973356272D+02  0.14626347570252229D-01  0.76936353533503241D-01
  0.91165078941074196D+01  0.61602396327977482D-01  0.14520319007466009D-01
  0.11488560074420720D+02  0.36167894861446559D-01  0.68485506498941568D-02
  0.24188378147669507D+02  0.11799792859403939D-01  0.17829595577705513D-02
  0.39300566810033104D+02  0.36170779205274765D-02  0.20573408534757739D-01