  0.73316259132770345E-06  0.12228665580363591E-05  0.51614843558706071E-06
  0.99615728285689043E-06  0.12228682239465657E-05  0.51614913864780558E-06
  0.10685429186264781E-05  0.12228686824655258E-05  0.51614933215564340E-06
  0.41099732667620380E+02  0.49169116717924954E-01  0.14728700180833909E+00
  0.41099732667620387E+02  0.49241384436803148E-01  0.14746215508241869E+00
  0.41099732667620394E+02  0.49193998859036157E-01  0.14734730796645232E+00
  0.20011656619842095E+01  0.42290609052999688E-03  0.17630168536210910E-03
  0.20011656619844786E+01  0.42287908116247971E-03  0.17629123086899005E-03
  0.47364613678335834E+01  0.23216541615311290E-02  0.93423778775379501E-03
  0.41086910012269243E+02  0.64992540821570785E-01  0.19592239280753740E+00
  0.41086910012269250E+02  0.65263321388726078E-01  0.19656696216766614E+00
  0.44096662994699138E+02  0.79867491529814275E-02  0.19283943213133023E-01
  0.38279540456409888E+01  0.16484769570848966E-02  0.65438381232397786E-03
  0.38279540456410936E+01  0.16440110328955573E-02  0.65270893499884636E-03
  0.93188593503441695E+01  0.87289861813669448E-01  0.26724831776373918E-01
  0.41037220320834528E+02  0.93792238987426516E-01  0.30198738208172821E+00
  0.41037220320834528E+02  0.93851715848919146E-01  0.30208600002598812E+00
  0.44121715916726693E+02  0.52047858934148204E-02  0.13024358804839976E-01
  0.53242704461202583E+01  0.36768146928754272E-02  0.13650769127954896E-02
  0.53242704461203560E+01  0.36686148634464352E-02  0.13622446804191109E-02
  0.13658190667508515E+02  0.38665871113043516E-01  0.92015987805970489E-02
  0.40943722223519273E+02  0.13417158300695911E+00  0.43825730708348720E+00
  0.40943722223519288E+02  0.13550558034498847E+00  0.44163045780357824E+00
  0.43967759306978174E+02  0.50820087592692523E-02  0.13727575249897180E-01
  0.63934817700560744E+01  0.70921144221233355E-02  0.24588068198233642E-02
  0.63934817700561766E+01  0.71027507737789555E-02  0.24627425747791669E-02
  0.17719945019150561E+02  0.26419346874923611E-02  0.80920213464874698E-03
  0.40844220972068698E+02  0.10380468075476829E+00  0.33575840258603246E+00
  0.40844220972068705E+02  0.10368952587578975E+00  0.33501626622771291E+00
  0.43454846265796775E+02  0.83306436481467312E-02  0.31341476994675398E-01
  0.70428731748971147E+01  0.11292276261702360E-01  0.37150940727240351E-02
  0.70428731748971760E+01  0.11323016084079965E-01  0.37248941577310473E-02
  0.21443345780133512E+02  0.58931021293574283E-02  0.13561080541042772E-02
  0.40810459094712378E+02  0.11534823644865899E+00  0.37917108922835102E+00
  0.40810459094712392E+02  0.11523152600654012E+00  0.37861987326245905E+00
  0.42510450052728963E+02  0.16561685357498471E-01  0.84107615052429710E-01
  0.73833469565557506E+01  0.17724561269844192E-01  0.56723721493303781E-02
  0.73833469565558154E+01  0.17771500833029578E-01  0.56865239218059898E-02
  0.24673953613699734E+02  0.14493171552983013E-01  0.20451453990177281E-02
  0.40883256625129206E+02  0.97257727482189416E-01  0.33392063339260841E+00
  0.40883256625129228E+02  0.97678900065200969E-01  0.33515298116935111E+00
  0.41246895989327243E+02  0.29741125055632108E-02  0.14635584123481730E-01
  0.75552827976504693E+01  0.24320858787745068E-01  0.77279998095661539E-02
  0.75552827976505590E+01  0.24379652522279301E-01  0.77454780029121177E-02
  0.27159809933040442E+02  0.31375527222878001E-01  0.18837287657184323E-02
  0.39967304606253478E+02  0.29699082128965388E-02  0.21296862937432392E-01
  0.41022729214423833E+02  0.86402106998257164E-01  0.30783733958889015E+00
  0.41022729214423833E+02  0.86733704609691792E-01  0.30868423818881635E+00
  0.76364927783707230E+01  0.36920179270619066E-01  0.11770573188708238E-01
  0.76364927783707648E+01  0.36993653006068897E-01  0.11792389120753718E-01
  0.28566958280070136E+02  0.18038958146888009E-01  0.51371211820413901E-03
  0.39117051024689822E+02  0.22338977117340236E-02  0.26292322920533129E-01
  0.41131837963171343E+02  0.27728849772919392E-01  0.98115087367214956E-01
  0.41131837963171343E+02  0.28046937213172602E-01  0.98939502991590100E-01
  0.76364927783707275E+01  0.36923204559212504E-01  0.11771471461947893E-01
  0.76364927783707888E+01  0.36990627717475751E-01  0.11791490847514106E-01
  0.28566958280070143E+02  0.18038958146887933E-01  0.51371211820413327E-03
  0.39117051024689822E+02  0.22338977117340210E-02  0.26292322920533118E-01
  0.41131837963171328E+02  0.28046915732902168E-01  0.98939447319259591E-01
  0.41131837963171343E+02  0.27728871253195616E-01  0.98115143039564798E-01
  0.75552827976504728E+01  0.24318064924907932E-01  0.77271692504047741E-02
  0.75552827976505021E+01  0.24382446385114973E-01  0.77463085620730716E-02
  0.27159809933040446E+02  0.31375527222877932E-01  0.18837287657184265E-02
  0.39967304606253478E+02  0.29699082128965401E-02  0.21296862937432413E-01
  0.41022729214423833E+02  0.86673538437112924E-01  0.30853057409244555E+00
  0.41022729214423848E+02  0.86462273170836240E-01  0.30799100368526655E+00
  0.73833469565557648E+01  0.17723205662946113E-01  0.56719634484587288E-02
  0.73833469565558278E+01  0.17772856439928125E-01  0.56869326226777379E-02
  0.24673953613699727E+02  0.14493171552982978E-01  0.20451453990177238E-02
  0.40883256625129206E+02  0.97844642034393817E-01  0.33563794091146792E+00
  0.40883256625129214E+02  0.97091985512990475E-01  0.33343567365047100E+00
  0.41246895989327228E+02  0.29741125055631795E-02  0.14635584123481486E-01
  0.70428731748970943E+01  0.11292746091560028E-01  0.37152438579923872E-02
  0.70428731748971618E+01  0.11322546254221936E-01  0.37247443724625793E-02
  0.21443345780133534E+02  0.58931021293574491E-02  0.13561080541042783E-02
  0.40810459094712385E+02  0.11503968174052641E+00  0.37771380504380908E+00
  0.40810459094712392E+02  0.11554008071467423E+00  0.38007715744701071E+00
  0.42510450052728970E+02  0.16561685357498499E-01  0.84107615052430557E-01
  0.63934817700560664E+01  0.70928516457008130E-02  0.24590796136762343E-02
  0.63934817700561659E+01  0.71020135502013462E-02  0.24624697809262621E-02
  0.17719945019150543E+02  0.26419346874923489E-02  0.80920213464874644E-03
  0.40844220972068683E+02  0.10384547341565999E+00  0.33602129823636745E+00
  0.40844220972068698E+02  0.10364873321491025E+00  0.33475337057741483E+00
  0.43454846265796775E+02  0.83306436481467364E-02  0.31341476994675418E-01
  0.53242704461202690E+01  0.36777571367484488E-02  0.13654024342070270E-02
  0.53242704461203774E+01  0.36676724195735147E-02  0.13619191590076094E-02
  0.13658190667508507E+02  0.38665871113043010E-01  0.92015987805969621E-02
  0.40943722223519281E+02  0.13404425524627916E+00  0.43793534562571867E+00
  0.40943722223519288E+02  0.13563290810567932E+00  0.44195241926138285E+00
  0.43967759306978174E+02  0.50820087592692532E-02  0.13727575249897180E-01
  0.38279540456409555E+01  0.16472269942613340E-02  0.65391503267128086E-03
  0.38279540456410386E+01  0.16452609957189838E-02  0.65317771465149077E-03
  0.93188593503441322E+01  0.87289861813674610E-01  0.26724831776375257E-01
  0.41037220320834535E+02  0.93820129825914561E-01  0.30203362758100277E+00
  0.41037220320834535E+02  0.93823825010422884E-01  0.30203975452668680E+00
  0.44121715916726693E+02  0.52047858934148221E-02  0.13024358804839984E-01
  0.20011656619843712E+01  0.42290573780187364E-03  0.17630154883193394E-03
  0.20011656619844733E+01  0.42287943389066599E-03  0.17629136739919212E-03
  0.47364613678336083E+01  0.23216541615311507E-02  0.93423778775380422E-03
  0.41086910012269250E+02  0.65229196498474584E-01  0.19648573086327459E+00
  0.41086910012269257E+02  0.65026665711808693E-01  0.19600362411188718E+00
  0.44096662994699152E+02  0.79867491529787473E-02  0.19283943213126532E-01
  0.28992306767529792E+01  0.72712174114450423E-03  0.29812283264614680E-03
  0.28992306767530147E+01  0.72641004560815834E-03  0.29785090715589473E-03
  0.47184798050377834E+01  0.22986580747977022E-02  0.93087670267597803E-03
  0.41108962927939984E+02  0.83475272005617704E-01  0.22804601054170820E+00
  0.41108962927939999E+02  0.83606219053648789E-01  0.22836302163176092E+00
  0.44067256155728863E+02  0.15780488700901287E-01  0.37649316293194103E-01
  0.41420931206075471E+01  0.20546385847876186E-02  0.81247607537395102E-03
  0.43867693062898754E+01  0.22010196457100607E-02  0.86081272482802895E-03
  0.83054301848201533E+01  0.33569258033767431E-01  0.11639523091498131E-01
  0.41069864595241235E+02  0.68523152569271398E-01  0.21777734746234578E+00
  0.41083451094621708E+02  0.67135279711198925E-01  0.20815501044422380E+00
  0.44073567700556133E+02  0.77734535788924171E-02  0.19124872791388876E-01
  0.54650180331597591E+01  0.40540053914238277E-02  0.15087926507673299E-02
  0.57268412958250199E+01  0.45752434653879249E-02  0.16627373542246599E-02
  0.12439207559555053E+02  0.27412311357921552E-01  0.72049238495270358E-02
  0.40956058948765907E+02  0.15067591402890051E+00  0.50112084563862580E+00
  0.41037608116443309E+02  0.92121223386914627E-01  0.30442978286487976E+00
  0.43957210108094543E+02  0.52572823345050507E-02  0.14001819402238920E-01
  0.66396855265899166E+01  0.83890292949219489E-02  0.29035524820843392E-02
  0.67077766375505883E+01  0.87322047173461047E-02  0.29459082634990920E-02
  0.16426804596925894E+02  0.21243768662341455E-02  0.69253678803521998E-03
  0.40821579900111679E+02  0.11346849091269942E+00  0.36981044056307466E+00
  0.40946743010551089E+02  0.13851173698029470E+00  0.46083371030587794E+00
  0.43568944804499765E+02  0.57770433228262344E-02  0.18202333487773469E-01
  0.73058506210293004E+01  0.15551941931388227E-01  0.49511317893875164E-02
  0.74878118483099438E+01  0.18921339928203062E-01  0.60939562049873077E-02
  0.20143003274805217E+02  0.43539611882257561E-02  0.11211388226683473E-02
  0.40762925281292269E+02  0.81418610098005828E-01  0.27641048029626925E+00
  0.40801051099606994E+02  0.11421543125066397E+00  0.36991313911857665E+00
  0.42843580271324946E+02  0.24630475782596074E-01  0.12405606768780103E+00
  0.76187014991060851E+01  0.27471628327673081E-01  0.85438205890434136E-02
  0.80072020061224016E+01  0.29586216788501700E-01  0.91011129351993066E-02
  0.23452333802741514E+02  0.96835556971477648E-02  0.16972555007910507E-02
  0.40529352240428103E+02  0.19362240846084733E-01  0.70034295881305220E-01
  0.40832853298449656E+02  0.10568242925770945E+00  0.35991199258977846E+00
  0.41959808135402547E+02  0.57241002158414872E-02  0.30902288981866425E-01
  0.77849552422393744E+01  0.27144094925520522E-01  0.83895395522919289E-02
  0.82958844588560101E+01  0.35252091408190307E-01  0.10561749791166836E-01
  0.26128525292146637E+02  0.30732507485689516E-01  0.27237349859406674E-02
  0.39825892909807948E+02  0.35391360792831547E-02  0.19306175547196599E-01
  0.40983106556270414E+02  0.10724100817133982E+00  0.38694266306058978E+00
  0.41483303487561422E+02  0.39563595221613736E-02  0.17985694157503684E-01
  0.78823540960633629E+01  0.28914280526203064E-01  0.89597166155591500E-02
  0.84420979447739875E+01  0.37357040153752789E-01  0.11080092808246865E-01
  0.27867218013369648E+02  0.27746972550842870E-01  0.10150613679565563E-02
  0.38998311283944211E+02  0.27202424880220901E-02  0.25795611761419198E-01
  0.41102124655956310E+02  0.42245685729973045E-01  0.14787133246393983E+00
  0.41443130417911810E+02  0.40922135364569812E-02  0.17266530416450560E-01
  0.79065597966538794E+01  0.29097642409205635E-01  0.90360487935416192E-02
  0.84743844506433419E+01  0.37598865877871937E-01  0.11115676177323428E-01
  0.28340003879741033E+02  0.21335747356031533E-01  0.62523712642994795E-03
  0.38726827963480829E+02  0.28416659508469200E-02  0.32700291180458765E-01
  0.41107987394900348E+02  0.65073802475436482E-01  0.20780288189703200E+00
  0.41488428330796090E+02  0.41640334972841515E-02  0.17549448517756350E-01
  0.78368799037223136E+01  0.28219931652623924E-01  0.87931538453882192E-02
  0.84094219495304099E+01  0.37155600985644063E-01  0.10975010150850695E-01
  0.27418629357283550E+02  0.28948663930681101E-01  0.14834689038056724E-02
  0.39208355528017869E+02  0.30392409862045181E-02  0.24328194939043687E-01
  0.41007554830431012E+02  0.90277374461754212E-01  0.32314373548268799E+00
  0.41517958753696362E+02  0.40893133797009719E-02  0.17855983776604783E-01
  0.76617610287176472E+01  0.24591654968041131E-01  0.77470505373365296E-02
  0.82835116185153108E+01  0.35148598907862774E-01  0.10390612428107604E-01
  0.25325107920743008E+02  0.18156844291723272E-01  0.21254044465966915E-02
  0.40042298875569692E+02  0.44656756346900866E-02  0.21112176060775908E-01
  0.40880280456964080E+02  0.95703369814548828E-01  0.32954136266923201E+00
  0.41675681855906319E+02  0.38686745780604956E-02  0.18987994529455880E-01
  0.73238059958922186E+01  0.16069822045513608E-01  0.52056097008481555E-02
  0.80863646726973020E+01  0.30589083251741454E-01  0.91651282615100929E-02
  0.22393660538790570E+02  0.73581615526118150E-02  0.14913372899572398E-02
  0.40555649751660383E+02  0.22935368432182437E-01  0.83227714675866635E-01
  0.40811181035313410E+02  0.11512454559561344E+00  0.37880644912592909E+00
  0.42305123277493074E+02  0.88807613778478373E-02  0.47561437443423782E-01
  0.66995419780317684E+01  0.86528979050084064E-02  0.29619550086897122E-02
  0.77045542686646238E+01  0.24500341837783417E-01  0.76295560449857530E-02
  0.18916845288741467E+02  0.34816765259047021E-02  0.98110028404795740E-03
  0.40770962624886799E+02  0.84717476850400181E-01  0.28307031393614929E+00
  0.40829616286339032E+02  0.11088247052050144E+00  0.35701003399228970E+00
  0.43133320982985310E+02  0.35328701650359652E-01  0.17436404396777261E+00
  0.56825907138053369E+01  0.44989866201565693E-02  0.16475832628310226E-02
  0.69874700211814016E+01  0.10687491574093601E-01  0.35735086489984500E-02
  0.15113678525918262E+02  0.15822003311295656E-02  0.54706104781873752E-03
  0.40902142719383150E+02  0.11121015355856174E+00  0.35917625087713612E+00
  0.40975128203317063E+02  0.12413592223485305E+00  0.42123711887412779E+00
  0.43699479587645939E+02  0.62336284700554388E-02  0.18587915189977811E-01
  0.42935720188638822E+01  0.21630799386825068E-02  0.84714058366327594E-03
  0.58496108552049932E+01  0.47286926702680716E-02  0.17276620523809193E-02
  0.11135481308539209E+02  0.36829089303691595E-01  0.99666952489541327E-02
  0.40979024063365806E+02  0.12105339861548431E+00  0.38800783204285355E+00
  0.41211692828213529E+02  0.50242853012341642E-02  0.15987059990193234E-01
  0.43886841482720897E+02  0.47653336294458887E-02  0.12680026783846169E-01
  0.27831837696687280E+01  0.69327159453152056E-03  0.28421392205441715E-03
  0.42358111357733508E+01  0.21246599748303784E-02  0.84065066602602716E-03
  0.72635555636774729E+01  0.13505286819722042E-01  0.49432897610600579E-02
  0.41039586178632433E+02  0.92833391810234187E-01  0.29409239360623479E+00
  0.41448902282211392E+02  0.47557007750187634E-02  0.15884553433189411E-01
  0.43782749538029499E+02  0.61596775730471190E-02  0.16217389196744050E-01
  0.54841784907522637E+01  0.41113136675124404E-02  0.15182855478533539E-02
  0.54841784907523499E+01  0.41139572933933180E-02  0.15191637180816025E-02
  0.93658878050046184E+01  0.93070231701604514E-01  0.28897123316458231E-01
  0.41030624278421108E+02  0.92307698545666284E-01  0.30750859117454571E+00
  0.41030624278421115E+02  0.92292810811815729E-01  0.30747578102999634E+00
  0.44094681329368647E+02  0.83930938021840040E-02  0.20378347066979666E-01
  0.65664417604522809E+01  0.81248536217256723E-02  0.27772268903278525E-02
  0.66061099440958166E+01  0.82651939219777985E-02  0.28466791896293031E-02
  0.12294670382505975E+02  0.26392427630151129E-01  0.71225737988532449E-02
  0.40902806925127550E+02  0.10888763264290037E+00  0.36567128382418979E+00
  0.40975836281133404E+02  0.12319990642801003E+00  0.41855287887835785E+00
  0.44006164715149161E+02  0.45728929504120774E-02  0.11870861719079934E-01
  0.73789757119610266E+01  0.17783805245096488E-01  0.56011618400077356E-02
  0.77447272051448977E+01  0.25711521336292353E-01  0.81134545426268835E-02
  0.15679562796123120E+02  0.17504730645483172E-02  0.59862513387487753E-03
  0.40748837500370044E+02  0.74127558195057133E-01  0.25394524102381621E+00
  0.40950975482783321E+02  0.14232272336956248E+00  0.49173801291327185E+00
  0.43638123848268414E+02  0.60991842717692934E-02  0.18440720016502647E-01
  0.78771128516579765E+01  0.29240801606327551E-01  0.87275775026092687E-02
  0.87519026419434720E+01  0.43456959217670829E-01  0.12369909384594140E-01
  0.19009949739911271E+02  0.35414016782752372E-02  0.99901503182749335E-03
  0.40678939487900386E+02  0.44703518265289670E-01  0.16040285966944606E+00
  0.40792052110689006E+02  0.11716749892859493E+00  0.38565464998654608E+00
  0.43041604808077878E+02  0.28416329756015546E-01  0.14199739824270050E+00
  0.81479697128055211E+01  0.32083620807056429E-01  0.93234673927022442E-02
  0.95048425413139714E+01  0.84141448777524108E-01  0.21192005841740882E-01
  0.22087949229231391E+02  0.67524463883180908E-02  0.14141726273089468E-02
  0.40306577549835893E+02  0.72636123704234844E-02  0.26387145459924106E-01
  0.40752084649926921E+02  0.73799922300766499E-01  0.26414833610824612E+00
  0.42455370030839447E+02  0.13987787692078505E-01  0.77122740446287502E-01
  0.83168866309721654E+01  0.36139093429232105E-01  0.10456129299014122E-01
  0.99958578921987780E+01  0.55656953401012475E-01  0.13397736839215036E-01
  0.24706280785449003E+02  0.14915912088422859E-01  0.19535921801563921E-02
  0.39473390009986261E+02  0.44493149953627811E-02  0.22454495830031136E-01
  0.40912531868885715E+02  0.10752202725595085E+00  0.39438033736278860E+00
  0.42129930309915210E+02  0.65355547811632251E-02  0.36281956420812354E-01
  0.84431965640811093E+01  0.37693228167624347E-01  0.10924122050090000E-01
  0.10268494864003523E+02  0.49779440898113807E-01  0.11604465580479201E-01
  0.26583918924964966E+02  0.51252128508941182E-01  0.33517310930233249E-02
  0.38627807601841539E+02  0.38336321160305454E-02  0.31804939944167235E-01
  0.41036270275655077E+02  0.85396551386820882E-01  0.32144006492663452E+00
  0.42052668815088964E+02  0.63106953831803050E-02  0.34202935922406107E-01
  0.85004000169611409E+01  0.38010988892657985E-01  0.11033036577836405E-01
  0.10348238051455679E+02  0.49442009294137029E-01  0.11409614981065819E-01
  0.27415495876758296E+02  0.29898809320310523E-01  0.13074680056914425E-02
  0.38178136118601543E+02  0.29921174977060407E-02  0.33153195099645531E-01
  0.41038370761195466E+02  0.84593427702848278E-01  0.31650702581266821E+00
  0.42107721102574786E+02  0.66010185335586202E-02  0.35332429653272351E-01
  0.84512242302331320E+01  0.37643150214682855E-01  0.10995575546030629E-01
  0.10263097481338699E+02  0.49975044876437412E-01  0.11534174494110160E-01
  0.27009893954158127E+02  0.35030959842210406E-01  0.18296292018051242E-02
  0.38325347888165354E+02  0.33789807737505681E-02  0.33414753382616028E-01
  0.40934612624795349E+02  0.11654259943325398E+00  0.42364437636184138E+00
  0.42213702040958438E+02  0.72542605067528517E-02  0.39405829250884698E-01
  0.82908070239777079E+01  0.35282270282202939E-01  0.10475262422383329E-01
  0.10099174707289968E+02  0.52092202480099395E-01  0.12080234031018223E-01
  0.25437541598329606E+02  0.19595105288848776E-01  0.20147843100176061E-02
  0.38923654933688731E+02  0.35548703283804529E-02  0.24936656549836143E-01
  0.40812418606188466E+02  0.11235105325470326E+00  0.38508939260103314E+00
  0.42371704616148357E+02  0.10434711731975870E-01  0.58536555528725887E-01
  0.79915545774605423E+01  0.29570386031066091E-01  0.90843109532970125E-02
  0.99384026732833188E+01  0.59780247238480404E-01  0.13968040471308561E-01
  0.22967168254780493E+02  0.88262875978484517E-02  0.15728489478790686E-02
  0.39655776894519740E+02  0.44379492264231494E-02  0.20702657577966740E-01
  0.40752883091760204E+02  0.76479468352946348E-01  0.26133489463718773E+00
  0.42637046607957487E+02  0.19207723774881377E-01  0.10736323811030707E+00
  0.74547177009463814E+01  0.18109854112289284E-01  0.58567100708168795E-02
  0.97027109833477194E+01  0.74909588217562564E-01  0.17973183658506850E-01
  0.19936530068932665E+02  0.42016361890600783E-02  0.10771549420149249E-02
  0.40319777891902149E+02  0.71587161791610799E-02  0.26731227481214714E-01
  0.40775402967763014E+02  0.89668747948347172E-01  0.29699380518353169E+00
  0.42994081963571745E+02  0.25747424782190241E-01  0.13732697087538537E+00
  0.65822537593926986E+01  0.81456084611604435E-02  0.28319856796390308E-02
  0.91294501747388690E+01  0.63891487474806705E-01  0.16922483787515815E-01
  0.16701707270944890E+02  0.22594088464190257E-02  0.72556890635205222E-03
  0.40840605698972730E+02  0.10379894816761688E+00  0.34604325742468461E+00
  0.40843831987667201E+02  0.10441678056079678E+00  0.33417330153654856E+00
  0.43350571528138730E+02  0.13239373867026318E-01  0.57535155537427475E-01
  0.54214219177507150E+01  0.39395061791380314E-02  0.14652077727127933E-02
  0.79094454891624206E+01  0.28975130573979727E-01  0.90938145956107486E-02
  0.13629164170922962E+02  0.36799975091985480E-01  0.88357194044657340E-02
  0.40915767501382362E+02  0.11834476069588978E+00  0.38014709090903331E+00
  0.41224258590824697E+02  0.41122466230156538E-02  0.13354325844317099E-01
  0.43580561490527749E+02  0.59441241179823637E-02  0.18016336355278367E-01
  0.42935720188641930E+01  0.21630799386826668E-02  0.84714058366333297E-03
  0.59186314365091093E+01  0.48428411436078119E-02  0.17670455113323524E-02
  0.11072531878149263E+02  0.37086077811198062E-01  0.10081248715047290E-01
  0.40979024063365799E+02  0.12105339861549508E+00  0.38800783204288852E+00
  0.41638507760000721E+02  0.46763995456629969E-02  0.16781413650605974E-01
  0.43488836308564892E+02  0.66672457170251255E-02  0.20544280718410090E-01
  0.74143147231451341E+01  0.18153159437801117E-01  0.56999941747685979E-02
  0.74143147231451740E+01  0.18173980103853907E-01  0.57061420696675772E-02
  0.13907788705513150E+02  0.22259469983712265E-01  0.57008743353808306E-02
  0.40772632395174121E+02  0.85340655419536879E-01  0.29200682761172669E+00
  0.40772632395174135E+02  0.84267523410640796E-01  0.28790105053457260E+00
  0.44074914359786398E+02  0.73686320323828819E-02  0.18667157165987162E-01
  0.80441514072524676E+01  0.30473162186043314E-01  0.88508823833257835E-02
  0.83032745201695430E+01  0.35956983409555367E-01  0.10300118218544776E-01
  0.16400802778327773E+02  0.20729999126279219E-02  0.71070413299789573E-03
  0.40627318472544019E+02  0.33997557927572350E-01  0.12568552873715111E+00
  0.40698916889828638E+02  0.48531558074706195E-01  0.17544879446201694E+00
  0.43812373339841429E+02  0.51426880229592156E-02  0.14573309050830761E-01
  0.84248926114874507E+01  0.38265611330832790E-01  0.10503282478532021E-01
  0.94123593845839988E+01  0.10376033696006561E+00  0.25087370391796791E-01
  0.19023455394056977E+02  0.34930725391336525E-02  0.10315470108570493E-02
  0.40573409676163003E+02  0.25471354305036161E-01  0.97915383381125959E-01
  0.40639704126895651E+02  0.36654845062277036E-01  0.13501382293960210E+00
  0.43228564628466984E+02  0.23085232996865112E-01  0.10553591051099313E+00
  0.86464687057579876E+01  0.41140531315634415E-01  0.10961702816527568E-01
  0.10509263695167212E+02  0.48496413342651166E-01  0.10460441376726934E-01
  0.21517319868168460E+02  0.59120043820979464E-02  0.13898962801587422E-02
  0.40211248470651213E+02  0.67005837883635441E-02  0.25448539868669719E-01
  0.40664866668922976E+02  0.40423568317590058E-01  0.15504340472730901E+00
  0.42695453820749911E+02  0.21003275362485852E-01  0.11470163300745452E+00
  0.88179529028277059E+01  0.47226121642901325E-01  0.12465767066221442E-01
  0.11394761066209446E+02  0.37207731959061262E-01  0.74348791660525763E-02
  0.23748212094002515E+02  0.10456998684960089E-01  0.17325273360908916E-02
  0.39289532962657901E+02  0.42461267050135539E-02  0.21832098386111769E-01
  0.40839064673592247E+02  0.97017261053085529E-01  0.36111449920229916E+00
  0.42502317429894660E+02  0.14831898995383286E-01  0.87070456950604336E-01
  0.89720070833706504E+01  0.55401024208036366E-01  0.14544087250008384E-01
  0.11968935570291400E+02  0.28471652952146723E-01  0.56644255455314280E-02
  0.25515124382733180E+02  0.20451767569352897E-01  0.20429044402131922E-02
  0.38302404205505624E+02  0.39044195160870460E-02  0.31697291448894722E-01
  0.40964687000475699E+02  0.13191028726086926E+00  0.51422548618549069E+00
  0.42515885075759407E+02  0.14866669200167612E-01  0.88966658128525833E-01
  0.90599247896153408E+01  0.60704353314069759E-01  0.15846079794971015E-01
  0.12205992755005553E+02  0.29150823786945466E-01  0.56890178272344088E-02
  0.26525956140674765E+02  0.54655975914488245E-01  0.32028765657527969E-02
  0.37660545489554195E+02  0.31096630838887752E-02  0.38314450619396687E-01
  0.40955136961477315E+02  0.13613794907480697E+00  0.52625953590178387E+00
  0.42617973381618249E+02  0.17465893321508170E-01  0.10483007484257863E+00
  0.90351116866350800E+01  0.58889910971584782E-01  0.15489340144819407E-01
  0.12139798586233098E+02  0.28999443244847101E-01  0.56322486624293677E-02
  0.26524361849116087E+02  0.55119431951369223E-01  0.30656965936813507E-02
  0.37552600731594836E+02  0.28789424831341098E-02  0.38684880500532974E-01
  0.40834399557868821E+02  0.10060602258484928E+00  0.36596183591433640E+00
  0.42766192591482010E+02  0.20248166879136095E-01  0.12293245638971964E+00
  0.89039603663249238E+01  0.51386432564642918E-01  0.13851714322836406E-01
  0.11898841148646548E+02  0.28596476624693310E-01  0.55559567665509745E-02
  0.25458348350473631E+02  0.20363054091457316E-01  0.18466576546322529E-02
  0.37918743555634322E+02  0.32332198244880202E-02  0.33583543637739473E-01
  0.40702266129676396E+02  0.48560671315038488E-01  0.17859706452970928E+00
  0.42937459225125338E+02  0.22557236089410002E-01  0.13704859589849908E+00
  0.86670055269197022E+01  0.40886115647534034E-01  0.11522505261322936E-01
  0.11656741278322368E+02  0.34746121146312252E-01  0.65632124441835612E-02
  0.23519967298965195E+02  0.10193677238155530E-01  0.15567849301563724E-02
  0.38573620208466188E+02  0.43318910179954966E-02  0.30916997108895932E-01
  0.40645913090623871E+02  0.38057061241691031E-01  0.13833586586287963E+00
  0.43100374080550850E+02  0.28126416930876287E-01  0.16927709925427026E+00
  0.82450007450103566E+01  0.34075849382957046E-01  0.10231339198669953E-01
  0.11380227039681134E+02  0.38031332658200842E-01  0.73736497826431572E-02
  0.21090667825837489E+02  0.56260183675881465E-02  0.12531590749741033E-02
  0.39396203664884460E+02  0.45038451602452635E-02  0.22015469638183752E-01
  0.40681386846576615E+02  0.45909714456815139E-01  0.16038866501998753E+00
  0.43189776336842250E+02  0.26421265679210975E-01  0.14932102974448858E+00
  0.75368651322655369E+01  0.23167712855829577E-01  0.74750217026083882E-02
  0.10658932003905608E+02  0.45725384623153995E-01  0.97896242327734639E-02
  0.18688141847128794E+02  0.33154472278526933E-02  0.93672645282113728E-03
  0.40242450886025566E+02  0.68949956317967678E-02  0.26238057134007134E-01
  0.40764325407276019E+02  0.83189589149933033E-01  0.27596576133853529E+00
  0.43220857934343357E+02  0.22748147413318858E-01  0.11594015618432413E+00
  0.65822537593925992E+01  0.81456084611600220E-02  0.28319856796388846E-02
  0.90923542598688751E+01  0.61918722455482307E-01  0.16500637062038141E-01
  0.16724208816171835E+02  0.22689325032210976E-02  0.72838903234718664E-03
  0.40773542266240028E+02  0.86426450759869558E-01  0.28971450076558802E+00
  0.40843831987667208E+02  0.10441678056079225E+00  0.33417330153653702E+00
  0.43412776880566796E+02  0.10589218458030588E-01  0.43903224774182244E-01
  0.56825907138055509E+01  0.44989866201568971E-02  0.16475832628311217E-02
  0.69802932291007682E+01  0.10614873704314047E-01  0.35507801766663347E-02
  0.15115525514518801E+02  0.15826301269350257E-02  0.54716310317510554E-03
  0.40902142719383185E+02  0.11121015355858067E+00  0.35917625087720523E+00
  0.40975677376880242E+02  0.12313069526961062E+00  0.41779603027541806E+00
  0.43699472785750999E+02  0.62334726241575098E-02  0.18588082449328202E-01
  0.85140628263760387E+01  0.39121534090786093E-01  0.10492217651045575E-01
  0.85140628263761045E+01  0.39139391827725398E-01  0.10496248015531359E-01
  0.18304217594613942E+02  0.29073782975791388E-02  0.92663987639448155E-03
  0.40511706585431945E+02  0.20973219663620285E-01  0.83126220946477675E-01
  0.40511706585431952E+02  0.20767080135020370E-01  0.82335363834831074E-01
  0.43725038233519065E+02  0.64501495336590220E-02  0.18840308637016544E-01
  0.87845844218772715E+01  0.46510983463303485E-01  0.11733889182741767E-01
  0.91479146145245682E+01  0.67364787682619165E-01  0.16056882566351828E-01
  0.20469721026807186E+02  0.45517172781854203E-02  0.12669062297870513E-02
  0.40482726555419823E+02  0.15845662889138093E-01  0.64416718773735532E-01
  0.40490881165944685E+02  0.17290814097803676E-01  0.71234872559346463E-01
  0.43212539512938108E+02  0.26043633382111884E-01  0.11692168489389389E+00
  0.89542567296978479E+01  0.55813974009028738E-01  0.13680914581413517E-01
  0.10240731476355577E+02  0.51902984534927789E-01  0.10769915621712443E-01
  0.22468146213794686E+02  0.72300885813135971E-02  0.16467264850262208E-02
  0.40220993984481595E+02  0.65285648160768707E-02  0.26082798489856590E-01
  0.40606070017738489E+02  0.28645378356667688E-01  0.11736107065408717E+00
  0.42630533973356272E+02  0.19676653981166716E-01  0.10396802511799370E+00
  0.91165078941074196E+01  0.65107855618251886E-01  0.15721536853064124E-01
  0.11488560074420720E+02  0.34872512646796416E-01  0.64855693288859923E-02
  0.24188378147669507E+02  0.11866202922773595E-01  0.20031514848362708E-02
  0.39300566810033104E+02  0.42830811969468445E-02  0.21823465163400276E-01