  0.69276729362830490E-06  0.25675374791685597E-05  0.10837918065041731E-05
  0.90658487922790345E-06  0.15037361353102915E-05  0.63465972408356747E-06
  0.98585703226492030E-06  0.20037198546884182E-05  0.84584790540656919E-06
  0.41099732667620380E+02  0.49065664313481520E-01  0.14722811703626837E+00
  0.41099732667620380E+02  0.49336686783975126E-01  0.14808453981363112E+00
  0.41099732667620401E+02  0.49768837468302199E-01  0.14940653298350406E+00
  0.20011656619843019E+01  0.43598028288040772E-03  0.18180978657882012E-03
  0.20011656619844409E+01  0.42739046347155138E-03  0.17812791745160610E-03
  0.47364613678336314E+01  0.22438068568335595E-02  0.90300890145801139E-03
  0.41086910012269243E+02  0.65748548525733655E-01  0.19795705153419185E+00
  0.41086910012269250E+02  0.66838535694912396E-01  0.20095802591291678E+00
  0.44096662994699152E+02  0.79683959266256509E-02  0.19274103060372066E-01
  0.38279540456409022E+01  0.16494792849506470E-02  0.65478699009463256E-03
  0.38279540456411119E+01  0.16382756916978800E-02  0.65052878018981156E-03
  0.93188593503441570E+01  0.84802949234736053E-01  0.25992818512102476E-01
  0.41037220320834521E+02  0.93830288312798354E-01  0.30254822607425130E+00
  0.41037220320834528E+02  0.94683672806705768E-01  0.30464862679383731E+00
  0.44121715916726679E+02  0.51899230186880675E-02  0.13010007250338417E-01
  0.53242704461202797E+01  0.36996637784591484E-02  0.13735220561572768E-02
  0.53242704461203454E+01  0.36275274883027482E-02  0.13473581498449840E-02
  0.13658190667508523E+02  0.38451127280240589E-01  0.91512219602580876E-02
  0.40943722223519266E+02  0.13384055743983492E+00  0.43722753789747471E+00
  0.40943722223519281E+02  0.13376916033088107E+00  0.43548953594029732E+00
  0.43967759306978174E+02  0.50575973440362288E-02  0.13679446547565359E-01
  0.63934817700560762E+01  0.71524426221139959E-02  0.24792107914316246E-02
  0.63934817700561695E+01  0.70049538369955965E-02  0.24287522779205427E-02
  0.17719945019150547E+02  0.26507814125424954E-02  0.81151530756284169E-03
  0.40844220972068683E+02  0.10346087937679541E+00  0.33431202976277347E+00
  0.40844220972068705E+02  0.10383224412945984E+00  0.33604952755510087E+00
  0.43454846265796775E+02  0.83290482654660592E-02  0.31181866063122423E-01
  0.70428731748971281E+01  0.11182056254942398E-01  0.36771638587681180E-02
  0.70428731748972169E+01  0.11339145738445222E-01  0.37314014420672548E-02
  0.21443345780133534E+02  0.59051862349638650E-02  0.13589574603334429E-02
  0.40810459094712378E+02  0.11586616683832421E+00  0.38128662369974675E+00
  0.40810459094712400E+02  0.11647046052449320E+00  0.38293195456404128E+00
  0.42510450052728963E+02  0.16517676604051582E-01  0.85308121033917911E-01
  0.73833469565557328E+01  0.18258093395931378E-01  0.58421399934139853E-02
  0.73833469565557888E+01  0.17599427320948824E-01  0.56336243247437677E-02
  0.24673953613699734E+02  0.14544906855588275E-01  0.20529586606748583E-02
  0.40883256625129206E+02  0.97140576832282041E-01  0.33349822389777484E+00
  0.40883256625129214E+02  0.97325147884745652E-01  0.33366098900280283E+00
  0.41246895989327236E+02  0.29828392089304621E-02  0.14626214060117189E-01
  0.75552827976504719E+01  0.25225309898164076E-01  0.80158071940241334E-02
  0.75552827976505119E+01  0.24239336047332583E-01  0.77036775066407284E-02
  0.27159809933040439E+02  0.31437860581044141E-01  0.18839976295192749E-02
  0.39967304606253471E+02  0.29411901780372193E-02  0.20775243299454644E-01
  0.41022729214423826E+02  0.85958774507939997E-01  0.30647621530468439E+00
  0.41022729214423826E+02  0.86510022089093586E-01  0.30809546113259090E+00
  0.76364927783707124E+01  0.38501113746079590E-01  0.12278446197422254E-01
  0.76364927783707639E+01  0.37762584836061250E-01  0.12041796324904182E-01
  0.28566958280070132E+02  0.18059299207199588E-01  0.51450862419264516E-03
  0.39117051024689815E+02  0.22159640389945692E-02  0.25721186613760685E-01
  0.41131837963171343E+02  0.27869272448879732E-01  0.98471045060630522E-01
  0.41131837963171343E+02  0.28263151761741448E-01  0.99705164514450578E-01
  0.76364927783707177E+01  0.39978941582604587E-01  0.12751868470017360E-01
  0.76364927783707541E+01  0.36284756999535886E-01  0.11568374052309024E-01
  0.28566958280070136E+02  0.18059299207199554E-01  0.51450862419264462E-03
  0.39117051024689815E+02  0.22159640389945679E-02  0.25721186613760733E-01
  0.41131837963171343E+02  0.27869001948920197E-01  0.98470196474898547E-01
  0.41131837963171350E+02  0.28263422261698225E-01  0.99706013100172991E-01
  0.75552827976504604E+01  0.25230169193680728E-01  0.80173360925841538E-02
  0.75552827976505110E+01  0.24234476751815587E-01  0.77021486080805874E-02
  0.27159809933040442E+02  0.31437860581044079E-01  0.18839976295192727E-02
  0.39967304606253492E+02  0.29411901780372878E-02  0.20775243299455043E-01
  0.41022729214423826E+02  0.85259672356801375E-01  0.30441815399074135E+00
  0.41022729214423840E+02  0.87209124240232916E-01  0.31015352244653810E+00
  0.73833469565557435E+01  0.18295341270653596E-01  0.58539447545071640E-02
  0.73833469565558003E+01  0.17562179446226903E-01  0.56218195636507130E-02
  0.24673953613699730E+02  0.14544906855588267E-01  0.20529586606748539E-02
  0.40883256625129206E+02  0.97157707885219741E-01  0.33351215631664355E+00
  0.40883256625129221E+02  0.97308016831811131E-01  0.33364705658394528E+00
  0.41246895989327228E+02  0.29828392089304477E-02  0.14626214060117054E-01
  0.70428731748971316E+01  0.11195634628412105E-01  0.36818115982701527E-02
  0.70428731748971769E+01  0.11325567364975147E-01  0.37267537025651031E-02
  0.21443345780133523E+02  0.59051862349638476E-02  0.13589574603334403E-02
  0.40810459094712385E+02  0.11593719114443626E+00  0.38140448044171343E+00
  0.40810459094712400E+02  0.11639943621838374E+00  0.38281409782208448E+00
  0.42510450052728977E+02  0.16517676604051807E-01  0.85308121033918979E-01
  0.63934817700560265E+01  0.71473248693045069E-02  0.24774595736054171E-02
  0.63934817700561526E+01  0.70100715898046301E-02  0.24305034957465953E-02
  0.17719945019150547E+02  0.26507814125424950E-02  0.81151530756284071E-03
  0.40844220972068690E+02  0.10334900668346281E+00  0.33380480606103713E+00
  0.40844220972068698E+02  0.10394411682279242E+00  0.33655675125683543E+00
  0.43454846265796760E+02  0.83290482654672943E-02  0.31181866063127988E-01
  0.53242704461202868E+01  0.36928881065303914E-02  0.13710703642964338E-02
  0.53242704461203516E+01  0.36343031602315487E-02  0.13498098417058424E-02
  0.13658190667508515E+02  0.38451127280240270E-01  0.91512219602580009E-02
  0.40943722223519266E+02  0.13384224139506343E+00  0.43729671057411124E+00
  0.40943722223519273E+02  0.13376747637564038E+00  0.43542036326362249E+00
  0.43967759306978159E+02  0.50575973440363641E-02  0.13679446547565761E-01
  0.38279540456409111E+01  0.16458814003422733E-02  0.65342124898825282E-03
  0.38279540456410466E+01  0.16418735763061832E-02  0.65189452129616398E-03
  0.93188593503441819E+01  0.84802949234734012E-01  0.25992818512101865E-01
  0.41037220320834521E+02  0.94471920373448953E-01  0.30412885826768737E+00
  0.41037220320834550E+02  0.94042040746042971E-01  0.30306799460035760E+00
  0.44121715916726693E+02  0.51899230186867318E-02  0.13010007250335104E-01
  0.20011656619842721E+01  0.43706051116512685E-03  0.18226937639115849E-03
  0.20011656619844671E+01  0.42631023518683155E-03  0.17766832763926719E-03
  0.47364613678335354E+01  0.22438068568335083E-02  0.90300890145799350E-03
  0.41086910012269236E+02  0.65167974668949233E-01  0.19638599596420947E+00
  0.41086910012269250E+02  0.67419109551703660E-01  0.20252908148292109E+00
  0.44096662994699145E+02  0.79683959266269172E-02  0.19274103060375143E-01
  0.28992306767529574E+01  0.72777595269906618E-03  0.29850489470123682E-03
  0.28992306767530831E+01  0.71554015196707876E-03  0.29320541771675311E-03
  0.47184798050377719E+01  0.22588616483326020E-02  0.91490914670203463E-03
  0.41108962927939977E+02  0.83425892025727699E-01  0.22786673397275967E+00
  0.41108962927939992E+02  0.83616791394924991E-01  0.22851092795697825E+00
  0.44067256155728863E+02  0.15649793799683540E-01  0.37327378750438713E-01
  0.41420931206075124E+01  0.21316936252685631E-02  0.84286754138782267E-03
  0.43867693062898478E+01  0.22187067933407659E-02  0.86781579524013370E-03
  0.83054301848201568E+01  0.33991758456510132E-01  0.11787049707465330E-01
  0.41069864595241228E+02  0.68061706411739892E-01  0.21666022052348136E+00
  0.41083451094621680E+02  0.68628693029733401E-01  0.21254202948658180E+00
  0.44073567700556126E+02  0.76335265077559977E-02  0.18784765225652859E-01
  0.54650180331597662E+01  0.41314438656887709E-02  0.15372145572048884E-02
  0.57268412958250297E+01  0.45933364208487195E-02  0.16689597157907470E-02
  0.12439207559555069E+02  0.27412591015176711E-01  0.72055284986622947E-02
  0.40956058948765914E+02  0.15237853625647563E+00  0.50682974313119988E+00
  0.41037608116443302E+02  0.93067541963552797E-01  0.30742209540385101E+00
  0.43957210108094543E+02  0.52716260316938539E-02  0.14064183420947588E-01
  0.66396855265898962E+01  0.85318942833291778E-02  0.29520472829160428E-02
  0.67077766375506300E+01  0.86335108068444077E-02  0.29118846865491183E-02
  0.16426804596925876E+02  0.21245597556223826E-02  0.69228117958674380E-03
  0.40821579900111679E+02  0.11377207807647860E+00  0.37139946768837540E+00
  0.40946743010551081E+02  0.13714709834977667E+00  0.45573740332840812E+00
  0.43568944804499765E+02  0.56778255164901190E-02  0.17978679327814814E-01
  0.73058506210293812E+01  0.15430085377299856E-01  0.49139322642398316E-02
  0.74878118483099527E+01  0.18722565109900512E-01  0.60306562822711983E-02
  0.20143003274805231E+02  0.43494812599718076E-02  0.11195351270061478E-02
  0.40762925281292276E+02  0.82276019580319715E-01  0.27963625243049428E+00
  0.40801051099607008E+02  0.11424438134198275E+00  0.36950946571813637E+00
  0.42843580271324953E+02  0.24704530906996088E-01  0.12449452543552857E+00
  0.76187014991060664E+01  0.27474095926911211E-01  0.85470135942728089E-02
  0.80072020061223945E+01  0.29325139121828728E-01  0.90211221720396528E-02
  0.23452333802741506E+02  0.96774485414203755E-02  0.16965379936721152E-02
  0.40529352240428096E+02  0.18953777228243381E-01  0.68337067701451329E-01
  0.40832853298449663E+02  0.10573792305616338E+00  0.36047839546061977E+00
  0.41959808135402554E+02  0.56903595184337021E-02  0.31122217338461499E-01
  0.77849552422393948E+01  0.27086647623480321E-01  0.83745688869251086E-02
  0.82958844588560101E+01  0.35686879581887578E-01  0.10692802632785771E-01
  0.26128525292146627E+02  0.30852514464836188E-01  0.27377663937126848E-02
  0.39825892909807941E+02  0.35257394306518353E-02  0.19267393844551017E-01
  0.40983106556270435E+02  0.10691722192647493E+00  0.38637502737912793E+00
  0.41483303487561415E+02  0.39460344998797619E-02  0.18163446871613666E-01
  0.78823540960633585E+01  0.28993145376086171E-01  0.89873296647546459E-02
  0.84420979447739626E+01  0.37515176375711314E-01  0.11128208486501277E-01
  0.27867218013369637E+02  0.28051155027266819E-01  0.10143014782743448E-02
  0.38998311283944211E+02  0.26721827633564800E-02  0.25280299798917986E-01
  0.41102124655956317E+02  0.41879022278837524E-01  0.14695297574635949E+00
  0.41443130417911810E+02  0.40973923355478526E-02  0.17429194423351859E-01
  0.79065597966538865E+01  0.29178509505014747E-01  0.90642959595004947E-02
  0.84743844506433188E+01  0.37609459977149311E-01  0.11119585396208363E-01
  0.28340003879741019E+02  0.21319064724450457E-01  0.62933156281828591E-03
  0.38726827963480815E+02  0.28708280687437531E-02  0.33346737044504755E-01
  0.41107987394900348E+02  0.64682115824270109E-01  0.20665078748299495E+00
  0.41488428330796097E+02  0.41985102989909682E-02  0.17722703942579205E-01
  0.78368799037222709E+01  0.28253420435009512E-01  0.88065688065925209E-02
  0.84094219495304010E+01  0.37444581670322247E-01  0.11061729714997014E-01
  0.27418629357283553E+02  0.29090546541556461E-01  0.14965709576860028E-02
  0.39208355528017862E+02  0.30269133183467791E-02  0.23876957612965474E-01
  0.41007554830430998E+02  0.89293859321281602E-01  0.31995570928766270E+00
  0.41517958753696362E+02  0.41316163362304856E-02  0.17989944505890535E-01
  0.76617610287176223E+01  0.24883519197023946E-01  0.78428972809935858E-02
  0.82835116185153339E+01  0.35569120805579564E-01  0.10515667205851962E-01
  0.25325107920743015E+02  0.18113722928250794E-01  0.21251562947369523E-02
  0.40042298875569692E+02  0.44572924103161342E-02  0.20595344323276768E-01
  0.40880280456964087E+02  0.95695396028348742E-01  0.32929602676847491E+00
  0.41675681855906326E+02  0.37863476619697648E-02  0.18824693236115225E-01
  0.73238059958922186E+01  0.15941163236952001E-01  0.51656136085938276E-02
  0.80863646726973535E+01  0.30335629682567377E-01  0.90869576710393869E-02
  0.22393660538790563E+02  0.73274237944433683E-02  0.14840695416801733E-02
  0.40555649751660376E+02  0.22847134938844174E-01  0.82033977041851489E-01
  0.40811181035313417E+02  0.11649840473569693E+00  0.38380387219417872E+00
  0.42305123277493067E+02  0.87595436151252318E-02  0.47087216943213536E-01
  0.66995419780317516E+01  0.85543783263213932E-02  0.29274906665470515E-02
  0.77045542686646167E+01  0.24409222194492829E-01  0.76014190212223085E-02
  0.18916845288741460E+02  0.34901172909142571E-02  0.98311278323727339E-03
  0.40770962624886799E+02  0.85414788705565126E-01  0.28499024753273927E+00
  0.40829616286339025E+02  0.11106262957433481E+00  0.35800944548479813E+00
  0.43133320982985310E+02  0.35685258264158880E-01  0.17600169919538242E+00
  0.56825907138053395E+01  0.45127297401464381E-02  0.16522680228684278E-02
  0.69874700211813963E+01  0.10614790307189278E-01  0.35486427423666368E-02
  0.15113678525918244E+02  0.15824985795113995E-02  0.54675441416032744E-03
  0.40902142719383150E+02  0.11175386929609180E+00  0.36078047510006811E+00
  0.40975128203317063E+02  0.12442694419711196E+00  0.42184648116187201E+00
  0.43699479587645946E+02  0.62138011103638870E-02  0.18470905837096242E-01
  0.42935720188639150E+01  0.21782658018019260E-02  0.85316856143864326E-03
  0.58496108552049879E+01  0.47546345842572509E-02  0.17370873624599295E-02
  0.11135481308539198E+02  0.36805816620212026E-01  0.99722753633057111E-02
  0.40979024063365813E+02  0.12067804034067897E+00  0.38748556551240748E+00
  0.41211692828213536E+02  0.49856842054389278E-02  0.15868363817541500E-01
  0.43886841482720911E+02  0.48367090253334617E-02  0.12925480069435521E-01
  0.27831837696687951E+01  0.67691929902891730E-03  0.27741552673787590E-03
  0.42358111357733588E+01  0.21862624606653557E-02  0.86506031400184955E-03
  0.72635555636774720E+01  0.13464290138292352E-01  0.49264686630341491E-02
  0.41039586178632433E+02  0.92634362914490356E-01  0.29379840111032723E+00
  0.41448902282211385E+02  0.48048854725410853E-02  0.16111698047921692E-01
  0.43782749538029478E+02  0.62723787992350127E-02  0.16552943447626985E-01
  0.54841784907522566E+01  0.41210997093944178E-02  0.15218958313195788E-02
  0.54841784907523454E+01  0.41976282284858987E-02  0.15498868471142963E-02
  0.93658878050046273E+01  0.93876744942534646E-01  0.29144615621239465E-01
  0.41030624278421108E+02  0.91761659387306599E-01  0.30624287049829285E+00
  0.41030624278421115E+02  0.93466244013935273E-01  0.31079948011495601E+00
  0.44094681329368647E+02  0.85620589575145303E-02  0.20775841370574321E-01
  0.65664417604522640E+01  0.80062378484394535E-02  0.27362153255927561E-02
  0.66061099440957820E+01  0.84702919298691171E-02  0.29165025351018787E-02
  0.12294670382505949E+02  0.26222404234364907E-01  0.70770749756346946E-02
  0.40902806925127543E+02  0.10939969804125621E+00  0.36724714610735071E+00
  0.40975836281133411E+02  0.12386267087653852E+00  0.42026640303436980E+00
  0.44006164715149168E+02  0.46134526150217944E-02  0.11983873149967027E-01
  0.73789757119609556E+01  0.17734801653223241E-01  0.55872639897042902E-02
  0.77447272051448985E+01  0.25595454862593264E-01  0.80759146796337590E-02
  0.15679562796123140E+02  0.17380500238214293E-02  0.59395521753452074E-03
  0.40748837500370044E+02  0.74348660616772408E-01  0.25471660215243103E+00
  0.40950975482783292E+02  0.14159674264672786E+00  0.48881692953149192E+00
  0.43638123848268414E+02  0.60872247457603567E-02  0.18440080620218294E-01
  0.78771128516579623E+01  0.29320227456119296E-01  0.87543553035477426E-02
  0.87519026419434471E+01  0.43163315411144668E-01  0.12280525360589198E-01
  0.19009949739911264E+02  0.35662010957788273E-02  0.10062018726693612E-02
  0.40678939487900372E+02  0.44924242067292716E-01  0.16145297825209778E+00
  0.40792052110688992E+02  0.11736859452661265E+00  0.38603093024060536E+00
  0.43041604808077871E+02  0.27840557038356931E-01  0.13907538595686336E+00
  0.81479697128055246E+01  0.32306401274155266E-01  0.93891632697623989E-02
  0.95048425413139412E+01  0.82790003401077533E-01  0.20877441276457149E-01
  0.22087949229231402E+02  0.67275306702410161E-02  0.14080811722955900E-02
  0.40306577549835893E+02  0.73500310718030357E-02  0.26643903198689634E-01
  0.40752084649926928E+02  0.74252407800964856E-01  0.26587597283210324E+00
  0.42455370030839447E+02  0.13960737763171477E-01  0.77836958095113679E-01
  0.83168866309721992E+01  0.36542567286631737E-01  0.10575272181012025E-01
  0.99958578921987904E+01  0.55196261054977512E-01  0.13284461767154185E-01
  0.24706280785449003E+02  0.14982866079494948E-01  0.19635116185660862E-02
  0.39473390009986254E+02  0.45355173634611399E-02  0.22766548417445694E-01
  0.40912531868885722E+02  0.10757586853710333E+00  0.39459090322985874E+00
  0.42129930309915210E+02  0.65059490346087703E-02  0.36466434188533431E-01
  0.84431965640810933E+01  0.37880441367721659E-01  0.10983711443290698E-01
  0.10268494864003499E+02  0.50181915759104571E-01  0.11702212676975110E-01
  0.26583918924964980E+02  0.51001832774846760E-01  0.33395383330418562E-02
  0.38627807601841539E+02  0.38958121221149052E-02  0.32205309002207978E-01
  0.41036270275655085E+02  0.85433649730269137E-01  0.32207020948370918E+00
  0.42052668815088964E+02  0.63265447856837289E-02  0.34706058410992911E-01
  0.85004000169611267E+01  0.38021466248863899E-01  0.11042431337900553E-01
  0.10348238051455649E+02  0.49710922693792868E-01  0.11474420733077603E-01
  0.27415495876758293E+02  0.30041121801830752E-01  0.13184792678538435E-02
  0.38178136118601543E+02  0.29579284374530073E-02  0.32720117650842921E-01
  0.41038370761195466E+02  0.84541801733194144E-01  0.31673803746568913E+00
  0.42107721102574786E+02  0.66342892766894880E-02  0.35700079840877766E-01
  0.84512242302331710E+01  0.37807046264108038E-01  0.11048932650172920E-01
  0.10263097481338704E+02  0.50344463597433040E-01  0.11626301290759538E-01
  0.27009893954158137E+02  0.35171456252915206E-01  0.18319358605259934E-02
  0.38325347888165361E+02  0.33752566198306314E-02  0.33600364037113757E-01
  0.40934612624795349E+02  0.11608926664474721E+00  0.42181637457120524E+00
  0.42213702040958438E+02  0.71251460972730322E-02  0.38758841103458556E-01
  0.82908070239777381E+01  0.35680932671096205E-01  0.10595641224138985E-01
  0.10099174707289958E+02  0.51905603256108296E-01  0.12047022596143913E-01
  0.25437541598329616E+02  0.19559915543291888E-01  0.20152473953292168E-02
  0.38923654933688731E+02  0.35619832901105731E-02  0.24527030663657072E-01
  0.40812418606188473E+02  0.11359930407822588E+00  0.38987658089846045E+00
  0.42371704616148349E+02  0.10469268195719422E-01  0.58723867270451001E-01
  0.79915545774605805E+01  0.29614090806821623E-01  0.91000020124815846E-02
  0.99384026732833508E+01  0.59193866926367508E-01  0.13833322658443403E-01
  0.22967168254780493E+02  0.88392738529612762E-02  0.15748951990808694E-02
  0.39655776894519740E+02  0.43823125241111739E-02  0.21099896068037985E-01
  0.40752883091760211E+02  0.76997765962776576E-01  0.26323233989429923E+00
  0.42637046607957487E+02  0.19300947364983317E-01  0.10835224565191832E+00
  0.74547177009464045E+01  0.18067885114164250E-01  0.58447820003008051E-02
  0.97027109833477052E+01  0.75217140512378378E-01  0.18033534221814342E-01
  0.19936530068932672E+02  0.41973042269423735E-02  0.10754012698560556E-02
  0.40319777891902149E+02  0.70954855620649895E-02  0.27054812038000520E-01
  0.40775402967763014E+02  0.89509247186058932E-01  0.29662421722174614E+00
  0.42994081963571745E+02  0.25793865382781771E-01  0.13783092872085370E+00
  0.65822537593926720E+01  0.80271218704804619E-02  0.27902698806833593E-02
  0.91294501747388228E+01  0.64011023854780080E-01  0.16952432131269884E-01
  0.16701707270944897E+02  0.22556232687946133E-02  0.72393359177166255E-03
  0.40840605698972730E+02  0.10428782500067293E+00  0.34707643158542445E+00
  0.40843831987667201E+02  0.10419804016602600E+00  0.33368523294176439E+00
  0.43350571528138730E+02  0.13367816456830573E-01  0.57998510550131464E-01
  0.54214219177506662E+01  0.39124549864599373E-02  0.14552642964307894E-02
  0.79094454891624073E+01  0.29126749689828531E-01  0.91428889790745108E-02
  0.13629164170922925E+02  0.36574204550904953E-01  0.87789617573928828E-02
  0.40915767501382398E+02  0.11824221941716193E+00  0.37987034610100257E+00
  0.41224258590824704E+02  0.41156457126955972E-02  0.13358060699173981E-01
  0.43580561490527749E+02  0.58447815324159588E-02  0.17805699422444289E-01
  0.42935720188642597E+01  0.21782658018021099E-02  0.85316856143871265E-03
  0.59186314365091146E+01  0.48247652315543234E-02  0.17604818258714870E-02
  0.11072531878149272E+02  0.37250434827263167E-01  0.10135236487717426E-01
  0.40979024063365799E+02  0.12067804034070036E+00  0.38748556551247598E+00
  0.41638507760000728E+02  0.46218567395969277E-02  0.16496803162769018E-01
  0.43488836308564885E+02  0.67059017039764806E-02  0.20770337035261349E-01
  0.74143147231451669E+01  0.18538807559951839E-01  0.58193666529678207E-02
  0.74143147231451918E+01  0.18121184718450492E-01  0.56918713365985548E-02
  0.13907788705513150E+02  0.22334189377034790E-01  0.57247139326866989E-02
  0.40772632395174121E+02  0.85458043190071942E-01  0.29241490150578192E+00
  0.40772632395174135E+02  0.85066575729585661E-01  0.29049516795174635E+00
  0.44074914359786398E+02  0.71574008040322292E-02  0.18131475955991024E-01
  0.80441514072524676E+01  0.30535454089239331E-01  0.88705644290195187E-02
  0.83032745201695501E+01  0.36429314799319448E-01  0.10435749272110927E-01
  0.16400802778327769E+02  0.20740541009682334E-02  0.71101201821365933E-03
  0.40627318472544005E+02  0.33969987320745028E-01  0.12598653669087581E+00
  0.40698916889828638E+02  0.48203403577811069E-01  0.17393672563287871E+00
  0.43812373339841436E+02  0.50856083447989872E-02  0.14407932522541297E-01
  0.84248926114875093E+01  0.38510372346481879E-01  0.10575176552464647E-01
  0.94123593845840094E+01  0.10354657716441203E+00  0.25040761026843820E-01
  0.19023455394056977E+02  0.35271078334144319E-02  0.10415578351044431E-02
  0.40573409676163003E+02  0.24964081782833825E-01  0.96693259827419789E-01
  0.40639704126895658E+02  0.36398074578053434E-01  0.13363392340977381E+00
  0.43228564628466991E+02  0.23116359193559054E-01  0.10558960886237775E+00
  0.86464687057580196E+01  0.40737031160331512E-01  0.10861051996417201E-01
  0.10509263695167236E+02  0.48222651970749972E-01  0.10401477175511771E-01
  0.21517319868168467E+02  0.59444634097319104E-02  0.13977103697954156E-02
  0.40211248470651228E+02  0.67808246464984992E-02  0.25861695496249865E-01
  0.40664866668922961E+02  0.40758411534888260E-01  0.15665857557642915E+00
  0.42695453820749911E+02  0.20991086139301573E-01  0.11410735516591443E+00
  0.88179529028276988E+01  0.46783406301799203E-01  0.12351359459762602E-01
  0.11394761066209453E+02  0.37432669068275304E-01  0.74729752085787304E-02
  0.23748212094002518E+02  0.10452748523652827E-01  0.17326638927670735E-02
  0.39289532962657887E+02  0.42091173725486370E-02  0.21633673024473249E-01
  0.40839064673592240E+02  0.96886749464831584E-01  0.36093252021787048E+00
  0.42502317429894660E+02  0.14789122584214054E-01  0.88909692198934479E-01
  0.89720070833706487E+01  0.55157212850667735E-01  0.14482975705255882E-01
  0.11968935570291375E+02  0.28570678699626571E-01  0.56873547288123112E-02
  0.25515124382733184E+02  0.20385961281748303E-01  0.20385580659875177E-02
  0.38302404205505624E+02  0.39088433542444961E-02  0.31774701723639089E-01
  0.40964687000475699E+02  0.13303310748489708E+00  0.51905842774247457E+00
  0.42515885075759407E+02  0.14825710389511543E-01  0.90305396981122082E-01
  0.90599247896153408E+01  0.60222540822043633E-01  0.15726713092745079E-01
  0.12205992755005544E+02  0.29011703626947168E-01  0.56642232681339477E-02
  0.26525956140674754E+02  0.54028689692790982E-01  0.31816520567115657E-02
  0.37660545489554195E+02  0.31419254712573294E-02  0.38698139026515158E-01
  0.40955136961477294E+02  0.13748665878787220E+00  0.53150870435263686E+00
  0.42617973381618249E+02  0.17413767255646757E-01  0.10411067216434430E+00
  0.90351116866351209E+01  0.58471608451082825E-01  0.15385015934650732E-01
  0.12139798586233100E+02  0.28976368017077717E-01  0.56293189395216431E-02
  0.26524361849116076E+02  0.54485333502193749E-01  0.30475586323642722E-02
  0.37552600731594843E+02  0.28899845847801240E-02  0.38907163841927807E-01
  0.40834399557868842E+02  0.10061013051262120E+00  0.36634071916977384E+00
  0.42766192591482003E+02  0.20181843155697574E-01  0.12260280453083673E+00
  0.89039603663249274E+01  0.51183284963299887E-01  0.13797971570232445E-01
  0.11898841148646518E+02  0.28768806671048662E-01  0.55883868065989308E-02
  0.25458348350473646E+02  0.20321860979477867E-01  0.18464496172851889E-02
  0.37918743555634322E+02  0.32303076266778185E-02  0.33241686130180637E-01
  0.40702266129676403E+02  0.47893882520942503E-01  0.17636084141653627E+00
  0.42937459225125338E+02  0.22706569682196042E-01  0.13798168261711566E+00
  0.86670055269197039E+01  0.40450399535958484E-01  0.11406621743160351E-01
  0.11656741278322350E+02  0.34889213471456543E-01  0.65903818464928491E-02
  0.23519967298965220E+02  0.10188298364793704E-01  0.15563266185456949E-02
  0.38573620208466195E+02  0.42848434520169985E-02  0.31205028657945430E-01
  0.40645913090623871E+02  0.38262446427255688E-01  0.13947307247212729E+00
  0.43100374080550850E+02  0.28244786484407886E-01  0.16978838443200986E+00
  0.82450007450103424E+01  0.34442510724930875E-01  0.10342893735642664E-01
  0.11380227039681147E+02  0.38319075576168968E-01  0.74238887658317860E-02
  0.21090667825837485E+02  0.56174704370206621E-02  0.12504459710037815E-02
  0.39396203664884467E+02  0.44501566093606967E-02  0.22192996566786940E-01
  0.40681386846576615E+02  0.46062612319459066E-01  0.16117116156704558E+00
  0.43189776336842236E+02  0.26339498114230624E-01  0.14935421943653118E+00
  0.75368651322654685E+01  0.23142915841459801E-01  0.74690120760341682E-02
  0.10658932003905615E+02  0.45811334919921211E-01  0.97984743732010358E-02
  0.18688141847128801E+02  0.33117752867282339E-02  0.93503439092115185E-03
  0.40242450886025559E+02  0.68856565358077076E-02  0.26753438358907346E-01
  0.40764325407276033E+02  0.84022698124341266E-01  0.27903729123670828E+00
  0.43220857934343364E+02  0.22960733443557431E-01  0.11735357437668895E+00
  0.65822537593926205E+01  0.80271218704802277E-02  0.27902698806832799E-02
  0.90923542598688929E+01  0.62374973626540854E-01  0.16621291890967799E-01
  0.16724208816171846E+02  0.22650870488813706E-02  0.72674722745664090E-03
  0.40773542266240021E+02  0.87011313665774873E-01  0.29107707931354959E+00
  0.40843831987667215E+02  0.10419804016601765E+00  0.33368523294173980E+00
  0.43412776880566781E+02  0.10552380737153259E-01  0.43349490567896977E-01
  0.56825907138055456E+01  0.45127297401467825E-02  0.16522680228685338E-02
  0.69802932291007673E+01  0.10533132033721328E-01  0.35228370417876055E-02
  0.15115525514518824E+02  0.15829209933915032E-02  0.54685377327538971E-03
  0.40902142719383207E+02  0.11175386929612098E+00  0.36078047510017031E+00
  0.40975677376880242E+02  0.12344801729044630E+00  0.41848023299288434E+00
  0.43699472785751013E+02  0.62136647019916339E-02  0.18471111934323572E-01
  0.85140628263760298E+01  0.38930492051940449E-01  0.10439671297202018E-01
  0.85140628263761133E+01  0.39061628468368803E-01  0.10479609453711295E-01
  0.18304217594613942E+02  0.28616363575423923E-02  0.91227894444761623E-03
  0.40511706585431945E+02  0.20605716060237523E-01  0.81772837867089818E-01
  0.40511706585431959E+02  0.20881171361262357E-01  0.82658322629092770E-01
  0.43725038233519065E+02  0.64314563890621283E-02  0.18798132539175758E-01
  0.87845844218772449E+01  0.45994183371470605E-01  0.11606938434602221E-01
  0.91479146145245700E+01  0.67790969773252149E-01  0.16146663972455837E-01
  0.20469721026807189E+02  0.45344978181002943E-02  0.12625009813734783E-02
  0.40482726555419816E+02  0.16305032205157832E-01  0.66171251045975293E-01
  0.40490881165944685E+02  0.17089981280023269E-01  0.70651137338032577E-01
  0.43212539512938108E+02  0.26309907481555584E-01  0.11816649342847770E+00
  0.89542567296978604E+01  0.55612279456455929E-01  0.13633436806509981E-01
  0.10240731476355620E+02  0.52645345801315871E-01  0.10930232443579676E-01
  0.22468146213794689E+02  0.71774606023850482E-02  0.16347155463159175E-02
  0.40220993984481588E+02  0.65735451613972455E-02  0.26504156801947867E-01
  0.40606070017738503E+02  0.28333305693179524E-01  0.11654542895688863E+00
  0.42630533973356265E+02  0.19789095644711242E-01  0.10408515533519261E+00
  0.91165078941074054E+01  0.64436747377342118E-01  0.15567282988116431E-01
  0.11488560074420718E+02  0.34736370040589624E-01  0.64613829007261385E-02
  0.24188378147669493E+02  0.11798530256865754E-01  0.19919567490458397E-02
  0.39300566810033104E+02  0.42535324560630068E-02  0.21659505692795778E-01