  0.73316259132770345E-06  0.37523867355673625E-04  0.15820551508311155E-04
  0.99615728285689043E-06  0.37524455952112453E-04  0.15820775499912267E-04
  0.10685429186264781E-05  0.37522901163056020E-04  0.15820185923722484E-04
  0.41099732667620380E+02  0.56694004632176415E-01  0.17084183693688321E+00
  0.41099732667620387E+02  0.56619482417326387E-01  0.17067258503210159E+00
  0.41099732667620394E+02  0.56668346256677125E-01  0.17078356264999986E+00
  0.20011656619842095E+01  0.46451541471350077E-03  0.19236350178113682E-03
  0.20011656619844786E+01  0.46402079216663805E-03  0.19217409711394561E-03
  0.47364613678335834E+01  0.25937460831800744E-02  0.10342693799846381E-02
  0.41086910012269243E+02  0.65514984931223805E-01  0.19929442983117890E+00
  0.41086910012269250E+02  0.65791778876340190E-01  0.19994240500448321E+00
  0.44096662994699138E+02  0.76770779001049446E-02  0.18800751527323020E-01
  0.38279540456409888E+01  0.15898865135426598E-02  0.62772120367237945E-03
  0.38279540456410936E+01  0.15856533751570608E-02  0.62615569212301177E-03
  0.93188593503441695E+01  0.90367773039502233E-01  0.27525874348353897E-01
  0.41037220320834528E+02  0.93916581116728209E-01  0.30076791208963899E+00
  0.41037220320834528E+02  0.94138714819367544E-01  0.30128924097199777E+00
  0.44121715916726693E+02  0.58429251226955704E-02  0.14752659757642840E-01
  0.53242704461202583E+01  0.36798539670311386E-02  0.13589083883555021E-02
  0.53242704461203560E+01  0.36755949548098058E-02  0.13575016477010214E-02
  0.13658190667508515E+02  0.36628203818022113E-01  0.88110046744301878E-02
  0.40943722223519273E+02  0.12580447605126541E+00  0.41056853302394342E+00
  0.40943722223519288E+02  0.12689136030071915E+00  0.41341165283129405E+00
  0.43967759306978174E+02  0.42597301539027670E-02  0.11748365431317116E-01
  0.63934817700560744E+01  0.71937513495547861E-02  0.24774725877181906E-02
  0.63934817700561766E+01  0.72021891500710748E-02  0.24803654305194912E-02
  0.17719945019150561E+02  0.27098910031716941E-02  0.82146647584269931E-03
  0.40844220972068698E+02  0.99453860901477870E-01  0.32343677394563175E+00
  0.40844220972068705E+02  0.99331091068344674E-01  0.32281756107103848E+00
  0.43454846265796775E+02  0.98682997148938859E-02  0.38676640564186696E-01
  0.70428731748971147E+01  0.12178800787093207E-01  0.39787431625348544E-02
  0.70428731748971760E+01  0.12208132499042764E-01  0.39878029694524744E-02
  0.21443345780133512E+02  0.58775563909817287E-02  0.13360021604012183E-02
  0.40810459094712378E+02  0.10413051166971331E+00  0.34325140814596505E+00
  0.40810459094712392E+02  0.10409110085229553E+00  0.34297886483111234E+00
  0.42510450052728963E+02  0.15416519911704174E-01  0.78205588812146648E-01
  0.73833469565557506E+01  0.18258463608047767E-01  0.58092710036660835E-02
  0.73833469565558154E+01  0.18300128193786756E-01  0.58216987495945836E-02
  0.24673953613699734E+02  0.14182306341427633E-01  0.19779980908133203E-02
  0.40883256625129206E+02  0.97044173204984568E-01  0.33312439373713976E+00
  0.40883256625129228E+02  0.97296383403745745E-01  0.33400660022687750E+00
  0.41246895989327243E+02  0.41481754419426184E-02  0.21023136563436538E-01
  0.75552827976504693E+01  0.23830459813186159E-01  0.75347380349575586E-02
  0.75552827976505590E+01  0.23874854797739528E-01  0.75478528016663668E-02
  0.27159809933040442E+02  0.31344932244119474E-01  0.19342013523903322E-02
  0.39967304606253478E+02  0.32333729921531786E-02  0.23302005316376578E-01
  0.41022729214423833E+02  0.91818023765641008E-01  0.32687586247001366E+00
  0.41022729214423833E+02  0.92250711774095273E-01  0.32803068664208562E+00
  0.76364927783707230E+01  0.32144797287381635E-01  0.10198638197904770E-01
  0.76364927783707648E+01  0.32197014176945211E-01  0.10214041135381668E-01
  0.28566958280070136E+02  0.18413854794234491E-01  0.56432908976378042E-03
  0.39117051024689822E+02  0.23307471185339472E-02  0.27447268699176280E-01
  0.41131837963171343E+02  0.33984450416125828E-01  0.12014106540406802E+00
  0.41131837963171343E+02  0.34097232629341882E-01  0.12044626510165178E+00
  0.76364927783707275E+01  0.32146947323165365E-01  0.10199272415435291E-01
  0.76364927783707888E+01  0.32194864141161170E-01  0.10213406917851066E-01
  0.28566958280070143E+02  0.18413854794234387E-01  0.56432908976377543E-03
  0.39117051024689822E+02  0.23307471185339437E-02  0.27447268699176262E-01
  0.41131837963171328E+02  0.34097225013224694E-01  0.12044624449169761E+00
  0.41131837963171343E+02  0.33984458032248720E-01  0.12014108601404200E+00
  0.75552827976504728E+01  0.23828350175169783E-01  0.75341148246849746E-02
  0.75552827976505021E+01  0.23876964435755123E-01  0.75484760119387097E-02
  0.27159809933040446E+02  0.31344932244119425E-01  0.19342013523903289E-02
  0.39967304606253478E+02  0.32333729921531777E-02  0.23302005316376578E-01
  0.41022729214423833E+02  0.92172203423938975E-01  0.32782115150661068E+00
  0.41022729214423848E+02  0.91896532115794294E-01  0.32708539760548189E+00
  0.73833469565557648E+01  0.18257260341634565E-01  0.58089120923987981E-02
  0.73833469565558278E+01  0.18301331460200482E-01  0.58220576608619973E-02
  0.24673953613699727E+02  0.14182306341427607E-01  0.19779980908133164E-02
  0.40883256625129206E+02  0.97395634439260012E-01  0.33435377059537830E+00
  0.40883256625129214E+02  0.96944922169467956E-01  0.33277722336863191E+00
  0.41246895989327228E+02  0.41481754419431718E-02  0.21023136563439411E-01
  0.70428731748970943E+01  0.12179249095280519E-01  0.39788816333347866E-02
  0.70428731748971618E+01  0.12207684190855047E-01  0.39876644986524346E-02
  0.21443345780133534E+02  0.58775563909817564E-02  0.13360021604012259E-02
  0.40810459094712385E+02  0.10402631882249407E+00  0.34253086830877544E+00
  0.40810459094712392E+02  0.10419529369951357E+00  0.34369940466829824E+00
  0.42510450052728970E+02  0.15416519911704396E-01  0.78205588812147966E-01
  0.63934817700560664E+01  0.71943361878230470E-02  0.24776730955603631E-02
  0.63934817700561659E+01  0.72016043118027480E-02  0.24801649226772931E-02
  0.17719945019150543E+02  0.27098910031716846E-02  0.82146647584269714E-03
  0.40844220972068683E+02  0.99497351096721948E-01  0.32365612497125701E+00
  0.40844220972068698E+02  0.99287600873103357E-01  0.32259821004541706E+00
  0.43454846265796775E+02  0.98682997148938911E-02  0.38676640564186689E-01
  0.53242704461202690E+01  0.36803434747712553E-02  0.13590700714883352E-02
  0.53242704461203774E+01  0.36751054470697576E-02  0.13573399645682067E-02
  0.13658190667508507E+02  0.36628203818022113E-01  0.88110046744302121E-02
  0.40943722223519281E+02  0.12570073481156183E+00  0.41029716210879430E+00
  0.40943722223519288E+02  0.12699510154042734E+00  0.41368302374645632E+00
  0.43967759306978174E+02  0.42597301539027679E-02  0.11748365431317119E-01
  0.38279540456409555E+01  0.15887017048928686E-02  0.62728303429163167E-03
  0.38279540456410386E+01  0.15868381838067694E-02  0.62659386150373027E-03
  0.93188593503441322E+01  0.90367773039506299E-01  0.27525874348355097E-01
  0.41037220320834535E+02  0.94020747595393667E-01  0.30101238194385804E+00
  0.41037220320834535E+02  0.94034548340695495E-01  0.30104477111775768E+00
  0.44121715916726693E+02  0.58429251226955765E-02  0.14752659757642846E-01
  0.20011656619843712E+01  0.46450895520228351E-03  0.19236102825545741E-03
  0.20011656619844733E+01  0.46402725167791516E-03  0.19217657063965037E-03
  0.47364613678336083E+01  0.25937460831801122E-02  0.10342693799846531E-02
  0.41086910012269250E+02  0.65756896155255332E-01  0.19986074448538924E+00
  0.41086910012269257E+02  0.65549867652298810E-01  0.19937609035024281E+00
  0.44096662994699152E+02  0.76770779001046540E-02  0.18800751527322315E-01
  0.28992306767529792E+01  0.89607479833834927E-03  0.36455793042897415E-03
  0.28992306767530147E+01  0.89416921109695523E-03  0.36383569920818556E-03
  0.47184798050377834E+01  0.25599402245155430E-02  0.10271292836738118E-02
  0.41108962927939984E+02  0.74843228305864956E-01  0.21391117694663378E+00
  0.41108962927939999E+02  0.74830583882852020E-01  0.21388663411096265E+00
  0.44067256155728863E+02  0.11783733709009333E-01  0.28408345620281009E-01
  0.41420931206075471E+01  0.18895786389929450E-02  0.74153991922289576E-03
  0.43867693062898754E+01  0.21605384432904617E-02  0.83704851191979427E-03
  0.83054301848201533E+01  0.31977057101415213E-01  0.11020394070299200E-01
  0.41069864595241235E+02  0.73724225853357653E-01  0.23406518217435368E+00
  0.41083451094621708E+02  0.67140207653046291E-01  0.20973315476044185E+00
  0.44073567700556133E+02  0.90518932927450835E-02  0.22345656710984992E-01
  0.54650180331597591E+01  0.39649075652656391E-02  0.14668239530255507E-02
  0.57268412958250199E+01  0.46393361334966764E-02  0.16726656520049735E-02
  0.12439207559555053E+02  0.26780823090868044E-01  0.70588535191059070E-02
  0.40956058948765907E+02  0.12964153856385227E+00  0.42968602836923592E+00
  0.41037608116443309E+02  0.92524037634239054E-01  0.30403167419736504E+00
  0.43957210108094543E+02  0.44084702061809389E-02  0.11987657680154652E-01
  0.66396855265899166E+01  0.85346714852158126E-02  0.29293270129098483E-02
  0.67077766375505883E+01  0.90974426123838301E-02  0.30419559824866075E-02
  0.16426804596925894E+02  0.21060595512431908E-02  0.68163569055144165E-03
  0.40821579900111679E+02  0.10223760087669721E+00  0.33492125183777166E+00
  0.40946743010551089E+02  0.12708694570587767E+00  0.42227258072693091E+00
  0.43568944804499765E+02  0.64826832339922808E-02  0.21602778075611721E-01
  0.73058506210293004E+01  0.16709193986470687E-01  0.52874367176262019E-02
  0.74878118483099438E+01  0.21368796740765379E-01  0.68477300241834519E-02
  0.20143003274805217E+02  0.44389660163795600E-02  0.11305953721573725E-02
  0.40762925281292269E+02  0.77733578111416290E-01  0.26408450767305153E+00
  0.40801051099606994E+02  0.10689193963827778E+00  0.34570967164395655E+00
  0.42843580271324946E+02  0.22939286640350342E-01  0.11506402898471794E+00
  0.76187014991060851E+01  0.29960487407565455E-01  0.92878441869219085E-02
  0.80072020061224016E+01  0.29341788302841922E-01  0.89789258437902638E-02
  0.23452333802741514E+02  0.97446920802300718E-02  0.16813961984241841E-02
  0.40529352240428103E+02  0.24540406480912286E-01  0.89553175124275547E-01
  0.40832853298449656E+02  0.97334662903340044E-01  0.33365355891278387E+00
  0.41959808135402547E+02  0.53856732298677712E-02  0.28892477153588610E-01
  0.77849552422393744E+01  0.25837688844453643E-01  0.79435086066230592E-02
  0.82958844588560101E+01  0.33607133095246509E-01  0.10009086647546571E-01
  0.26128525292146637E+02  0.30277292452650206E-01  0.26448601095452476E-02
  0.39825892909807948E+02  0.37641992178103420E-02  0.20531556658355439E-01
  0.40983106556270414E+02  0.10897812445941278E+00  0.39195728396139518E+00
  0.41483303487561422E+02  0.38137001581288500E-02  0.17476044387735611E-01
  0.78823540960633629E+01  0.27546149097244458E-01  0.84879880610556121E-02
  0.84420979447739875E+01  0.36524351047269497E-01  0.10750729188413915E-01
  0.27867218013369648E+02  0.27082509881620160E-01  0.10469447659232850E-02
  0.38998311283944211E+02  0.28893937820413705E-02  0.27260724398571717E-01
  0.41102124655956310E+02  0.49763500648986624E-01  0.17529578017790423E+00
  0.41443130417911810E+02  0.39070138840766504E-02  0.16569437843906451E-01
  0.79065597966538794E+01  0.27900002090079278E-01  0.86156650208388755E-02
  0.84743844506433419E+01  0.37272889405855054E-01  0.10933031876118094E-01
  0.28340003879741033E+02  0.22404313449325981E-01  0.67530510922950463E-03
  0.38726827963480829E+02  0.26618635940841699E-02  0.30656626236422228E-01
  0.41107987394900348E+02  0.66634502322081984E-01  0.21932172938505745E+00
  0.41488428330796090E+02  0.40222266233645816E-02  0.17094031417809168E-01
  0.78368799037223136E+01  0.26728418008533331E-01  0.82824814377116373E-02
  0.84094219495304099E+01  0.35893161940902377E-01  0.10524773032879931E-01
  0.27418629357283550E+02  0.29076867600860840E-01  0.14908777222293224E-02
  0.39208355528017869E+02  0.30425645233057774E-02  0.24721548646073802E-01
  0.41007554830431012E+02  0.95636711742965133E-01  0.34122511997595345E+00
  0.41517958753696362E+02  0.40024663390865189E-02  0.17678939565778977E-01
  0.76617610287176472E+01  0.27815076287770926E-01  0.87385245079844610E-02
  0.82835116185153108E+01  0.33560442416867287E-01  0.98636395609408099E-02
  0.25325107920743008E+02  0.18517024973161999E-01  0.21235799959213029E-02
  0.40042298875569692E+02  0.45470588200665057E-02  0.21745273305534385E-01
  0.40880280456964080E+02  0.96241570371822335E-01  0.33122853770948196E+00
  0.41675681855906319E+02  0.41925203242652838E-02  0.20876347563223471E-01
  0.73238059958922186E+01  0.16985206766621463E-01  0.54694946617163840E-02
  0.80863646726973020E+01  0.30620262187516442E-01  0.91304033895751296E-02
  0.22393660538790570E+02  0.73995018516749018E-02  0.14834284114357695E-02
  0.40555649751660383E+02  0.25907067330249257E-01  0.94297866348186057E-01
  0.40811181035313410E+02  0.10375174755737239E+00  0.34246013416104648E+00
  0.42305123277493074E+02  0.93265807027321217E-02  0.49787237886589238E-01
  0.66995419780317684E+01  0.89898276553201997E-02  0.30501529816618247E-02
  0.77045542686646238E+01  0.24275545246815779E-01  0.75227743329619474E-02
  0.18916845288741467E+02  0.34473999068835226E-02  0.96314900330919911E-03
  0.40770962624886799E+02  0.84184294342468408E-01  0.28044827964301805E+00
  0.40829616286339032E+02  0.10144384420637746E+00  0.32863499107538224E+00
  0.43133320982985310E+02  0.32633606507513249E-01  0.16095349513140514E+00
  0.56825907138053369E+01  0.45056852473310885E-02  0.16374994183556706E-02
  0.69874700211814016E+01  0.11545149559903803E-01  0.38317796143444477E-02
  0.15113678525918262E+02  0.17497255708444751E-02  0.58794526574641617E-03
  0.40902142719383150E+02  0.10555047152580548E+00  0.34099384371004254E+00
  0.40975128203317063E+02  0.12035025943933872E+00  0.40727976624893858E+00
  0.43699479587645939E+02  0.58735790566521503E-02  0.17811330048068615E-01
  0.42935720188638822E+01  0.20515236389112516E-02  0.79644154445370960E-03
  0.58496108552049932E+01  0.49861859908401926E-02  0.18063989978604649E-02
  0.11135481308539209E+02  0.36652255996491565E-01  0.99588077454764324E-02
  0.40979024063365806E+02  0.12083953278881029E+00  0.38606902468640342E+00
  0.41211692828213529E+02  0.95753829345929641E-02  0.31571032970029798E-01
  0.43886841482720897E+02  0.48593675034973704E-02  0.13197383080968433E-01
  0.27831837696687280E+01  0.82791234644285540E-03  0.33675870205146692E-03
  0.42358111357733508E+01  0.19842493656312380E-02  0.77856308853643742E-03
  0.72635555636774729E+01  0.14967983564644285E-01  0.54440472318692144E-02
  0.41039586178632433E+02  0.93530716588872673E-01  0.29499979153609474E+00
  0.41448902282211392E+02  0.45452867084294253E-02  0.15261327768952256E-01
  0.43782749538029499E+02  0.59020861783202613E-02  0.15787161434330756E-01
  0.54841784907522637E+01  0.40170145349356012E-02  0.14744188713616243E-02
  0.54841784907523499E+01  0.40184510279395692E-02  0.14748754188428454E-02
  0.93658878050046184E+01  0.87013108582302531E-01  0.27012883877269720E-01
  0.41030624278421108E+02  0.94497003593879039E-01  0.31355740588118014E+00
  0.41030624278421115E+02  0.94468390006777064E-01  0.31348705278340838E+00
  0.44094681329368647E+02  0.78458505068925918E-02  0.19315128746747304E-01
  0.65664417604522809E+01  0.81314633829961437E-02  0.27579544453421403E-02
  0.66061099440958166E+01  0.83363551780126569E-02  0.28480850519586988E-02
  0.12294670382505975E+02  0.25998890961606461E-01  0.70410651793938947E-02
  0.40902806925127550E+02  0.10320438946237624E+00  0.34670267261894522E+00
  0.40975836281133404E+02  0.12003168781053893E+00  0.40668749241754337E+00
  0.44006164715149161E+02  0.41693004990927558E-02  0.11018914780519399E-01
  0.73789757119610266E+01  0.18303463225432918E-01  0.57313738332948720E-02
  0.77447272051448977E+01  0.24828313698976388E-01  0.77944317870084455E-02
  0.15679562796123120E+02  0.18155844243863952E-02  0.61581721817840487E-03
  0.40748837500370044E+02  0.70809691805534009E-01  0.24316532133982158E+00
  0.40950975482783321E+02  0.12623925445460799E+00  0.43515752781928946E+00
  0.43638123848268414E+02  0.60657908763635639E-02  0.18868346489005986E-01
  0.78771128516579765E+01  0.27829690840462221E-01  0.82598685020623536E-02
  0.87519026419434720E+01  0.45668221392791669E-01  0.12902511034655201E-01
  0.19009949739911271E+02  0.35034010177391094E-02  0.97949101224579518E-03
  0.40678939487900386E+02  0.45919525570636041E-01  0.16525330284312462E+00
  0.40792052110689006E+02  0.10408669088767501E+00  0.34281779304128396E+00
  0.43041604808077878E+02  0.27698925989443225E-01  0.13786720189964813E+00
  0.81479697128055211E+01  0.31761333710235595E-01  0.91864540813358167E-02
  0.95048425413139714E+01  0.92074137751327403E-01  0.23168097887348783E-01
  0.22087949229231391E+02  0.68851652257807330E-02  0.14230369361832250E-02
  0.40306577549835893E+02  0.65134254976646853E-02  0.24010098628076820E-01
  0.40752084649926921E+02  0.70076068119128199E-01  0.25141250966141376E+00
  0.42455370030839447E+02  0.12857363616584572E-01  0.70601574071028350E-01
  0.83168866309721654E+01  0.34401651132009707E-01  0.98922544859977781E-02
  0.99958578921987780E+01  0.57356945708781651E-01  0.13787363933732543E-01
  0.24706280785449003E+02  0.14614371950363410E-01  0.18909254793332926E-02
  0.39473390009986261E+02  0.38730640433003779E-02  0.20332241727149151E-01
  0.40912531868885715E+02  0.10066703198837934E+00  0.36962076574401609E+00
  0.42129930309915210E+02  0.66678749910658820E-02  0.37123628607001913E-01
  0.84431965640811093E+01  0.36859130422407516E-01  0.10601593830676961E-01
  0.10268494864003523E+02  0.49732399253778807E-01  0.11664095442351845E-01
  0.26583918924964966E+02  0.45662422961105641E-01  0.29915300375868829E-02
  0.38627807601841539E+02  0.34816445179776923E-02  0.29240936318925166E-01
  0.41036270275655077E+02  0.85461892477372972E-01  0.31994492546293968E+00
  0.42052668815088964E+02  0.60542082693297366E-02  0.32815634476345945E-01
  0.85004000169611409E+01  0.38125229699627387E-01  0.10978707798900702E-01
  0.10348238051455679E+02  0.47885748353911566E-01  0.11137306039093037E-01
  0.27415495876758296E+02  0.30028648513825189E-01  0.13141487963956246E-02
  0.38178136118601543E+02  0.30059338389345457E-02  0.33793516926861597E-01
  0.41038370761195466E+02  0.84851279745348424E-01  0.31589569346687613E+00
  0.42107721102574786E+02  0.66091234628419121E-02  0.35471639585855828E-01
  0.84512242302331320E+01  0.36931442663840255E-01  0.10705383475795527E-01
  0.10263097481338699E+02  0.50045876948020651E-01  0.11618868036373011E-01
  0.27009893954158127E+02  0.34858788565827074E-01  0.18705320322713623E-02
  0.38325347888165354E+02  0.31863474563334948E-02  0.32256551987647521E-01
  0.40934612624795349E+02  0.11188539712632053E+00  0.40719376826798975E+00
  0.42213702040958438E+02  0.77691650622587257E-02  0.42269062336046999E-01
  0.82908070239777079E+01  0.33647857264830952E-01  0.99316593063793202E-02
  0.10099174707289968E+02  0.54813476303722623E-01  0.12718933602482460E-01
  0.25437541598329606E+02  0.19996925055544387E-01  0.20172341645127456E-02
  0.38923654933688731E+02  0.37073217165278114E-02  0.25888098032790054E-01
  0.40812418606188466E+02  0.10081252448467408E+00  0.34678450815625395E+00
  0.42371704616148357E+02  0.10442653956061525E-01  0.58258749194046833E-01
  0.79915545774605423E+01  0.29181199349141301E-01  0.89174533706397052E-02
  0.99384026732833188E+01  0.59690971724950893E-01  0.13926646586657279E-01
  0.22967168254780493E+02  0.86873506598256142E-02  0.15312558361841716E-02
  0.39655776894519740E+02  0.40337140109716245E-02  0.19237839142656223E-01
  0.40752883091760204E+02  0.72542987838117481E-01  0.24845584664161577E+00
  0.42637046607957487E+02  0.18335312372684813E-01  0.10266447536005546E+00
  0.74547177009463814E+01  0.20064324004742590E-01  0.64534793641346563E-02
  0.97027109833477194E+01  0.64492335646940374E-01  0.15507712354679470E-01
  0.19936530068932665E+02  0.42822138292744122E-02  0.10850746611150402E-02
  0.40319777891902149E+02  0.65528964465143219E-02  0.24734323289711650E-01
  0.40775402967763014E+02  0.89149946971531391E-01  0.29436367632713095E+00
  0.42994081963571745E+02  0.25299538681224108E-01  0.13453556499871319E+00
  0.65822537593926986E+01  0.81740649550593129E-02  0.28194311952867315E-02
  0.91294501747388690E+01  0.68431718008546111E-01  0.17953252997959548E-01
  0.16701707270944890E+02  0.22239797150767804E-02  0.70846240498204593E-03
  0.40840605698972730E+02  0.97965012199921306E-01  0.32846350405880398E+00
  0.40843831987667201E+02  0.99850385599275199E-01  0.32153000323707315E+00
  0.43350571528138730E+02  0.13924786085080323E-01  0.61370204848891059E-01
  0.54214219177507150E+01  0.38712653721147544E-02  0.14315498434754334E-02
  0.79094454891624206E+01  0.27815500834452372E-01  0.86809073615603874E-02
  0.13629164170922962E+02  0.36371558899060637E-01  0.88089631510263194E-02
  0.40915767501382362E+02  0.11083211545045471E+00  0.35646924546153602E+00
  0.41224258590824697E+02  0.74232300427829077E-02  0.25230694304583474E-01
  0.43580561490527749E+02  0.64891813790413679E-02  0.20690460852915607E-01
  0.42935720188641930E+01  0.20515236389115955E-02  0.79644154445383634E-03
  0.59186314365091093E+01  0.52073765197586082E-02  0.18840477297439669E-02
  0.11072531878149263E+02  0.37174914877424421E-01  0.10125103354416189E-01
  0.40979024063365799E+02  0.12083953278881682E+00  0.38606902468642268E+00
  0.41638507760000721E+02  0.49706412441791487E-02  0.18150993913189733E-01
  0.43488836308564892E+02  0.89167679333234055E-02  0.29775610381507143E-01
  0.74143147231451341E+01  0.19073908122996953E-01  0.59545985532997040E-02
  0.74143147231451740E+01  0.19091865136672680E-01  0.59598514537549316E-02
  0.13907788705513150E+02  0.25911923663068669E-01  0.65558037133147335E-02
  0.40772632395174121E+02  0.84638768847788926E-01  0.28886927767131537E+00
  0.40772632395174135E+02  0.84300104131270176E-01  0.28766717425038385E+00
  0.44074914359786398E+02  0.83346061850014842E-02  0.21210910176389798E-01
  0.80441514072524676E+01  0.30440671112865466E-01  0.87976035985341244E-02
  0.83032745201695430E+01  0.34258860807594584E-01  0.97543985053241359E-02
  0.16400802778327773E+02  0.20577388807799515E-02  0.70044511771082953E-03
  0.40627318472544019E+02  0.35064735915945208E-01  0.12964559159557287E+00
  0.40698916889828638E+02  0.51404879761207473E-01  0.18575547737369866E+00
  0.43812373339841429E+02  0.54319933338219401E-02  0.15619817821413261E-01
  0.84248926114874507E+01  0.37160404171123061E-01  0.10124317292547523E-01
  0.94123593845839988E+01  0.98116239546677614E-01  0.23708028315431291E-01
  0.19023455394056977E+02  0.34555994757801693E-02  0.10113272561265243E-02
  0.40573409676163003E+02  0.27244482906348275E-01  0.10494857566812774E+00
  0.40639704126895651E+02  0.37156096092180152E-01  0.13676438994086007E+00
  0.43228564628466984E+02  0.24412931727094304E-01  0.11362184395254760E+00
  0.86464687057579876E+01  0.43188209990154672E-01  0.11424293542533581E-01
  0.10509263695167212E+02  0.45606995220994026E-01  0.99232120738484125E-02
  0.21517319868168460E+02  0.59212851996928544E-02  0.13743724320476628E-02
  0.40211248470651213E+02  0.57627126156154541E-02  0.22275120370299745E-01
  0.40664866668922976E+02  0.40812799540040828E-01  0.15708367838025392E+00
  0.42695453820749911E+02  0.19911614117452289E-01  0.10871966253349494E+00
  0.88179529028277059E+01  0.49546321690595904E-01  0.12964319918274219E-01
  0.11394761066209446E+02  0.36669312958659363E-01  0.73792921878330251E-02
  0.23748212094002515E+02  0.10633717641620266E-01  0.17331290513637821E-02
  0.39289532962657901E+02  0.40515683429691472E-02  0.21458542609070010E-01
  0.40839064673592247E+02  0.91023082143240355E-01  0.34107030324559556E+00
  0.42502317429894660E+02  0.13698402872145493E-01  0.80289518398364346E-01
  0.89720070833706504E+01  0.57379033982028975E-01  0.14901644253650901E-01
  0.11968935570291400E+02  0.28599321300209070E-01  0.56955802700118839E-02
  0.25515124382733180E+02  0.20791221024375653E-01  0.20415095371876645E-02
  0.38302404205505624E+02  0.37150582192000694E-02  0.30833668466735503E-01
  0.40964687000475699E+02  0.11574667874860102E+00  0.44952397312661668E+00
  0.42515885075759407E+02  0.13923504083237599E-01  0.83256874159974917E-01
  0.90599247896153408E+01  0.63139355105634676E-01  0.16310905646210239E-01
  0.12205992755005553E+02  0.28782799773377058E-01  0.56390424802590057E-02
  0.26525956140674765E+02  0.47215757831644542E-01  0.27680194818353624E-02
  0.37660545489554195E+02  0.29220200100957315E-02  0.36174834810638296E-01
  0.40955136961477315E+02  0.11759616853663457E+00  0.45307710261103840E+00
  0.42617973381618249E+02  0.16945928449956977E-01  0.10190954594825928E+00
  0.90351116866350800E+01  0.61267207550268273E-01  0.15938864256732556E-01
  0.12139798586233098E+02  0.28668652518934634E-01  0.55895665786829165E-02
  0.26524361849116087E+02  0.47671102905735271E-01  0.26521092610728055E-02
  0.37552600731594836E+02  0.27175772210028129E-02  0.36926552016046353E-01
  0.40834399557868821E+02  0.93009872831447418E-01  0.34058872581878619E+00
  0.42766192591482010E+02  0.19350947794267197E-01  0.11698759030295060E+00
  0.89039603663249238E+01  0.53179829022613902E-01  0.14199024571201939E-01
  0.11898841148646548E+02  0.29438984973433384E-01  0.57026395517261420E-02
  0.25458348350473631E+02  0.20766362284865999E-01  0.18484608299709944E-02
  0.37918743555634322E+02  0.33038718415549268E-02  0.34286684877768654E-01
  0.40702266129676396E+02  0.51648795607792203E-01  0.19011640663896739E+00
  0.42937459225125338E+02  0.21833256020880130E-01  0.13254861615629560E+00
  0.86670055269197022E+01  0.42983911235883666E-01  0.12027872567016670E-01
  0.11656741278322368E+02  0.34854390185401693E-01  0.66155457507974195E-02
  0.23519967298965195E+02  0.10295735536714701E-01  0.15471483227995101E-02
  0.38573620208466188E+02  0.39097036143068507E-02  0.28442636107385930E-01
  0.40645913090623871E+02  0.38550307904636046E-01  0.14044661155563251E+00
  0.43100374080550850E+02  0.26346793009555423E-01  0.15822774151871388E+00
  0.82450007450103566E+01  0.32782144657037951E-01  0.97904155025344605E-02
  0.11380227039681134E+02  0.37303664345327926E-01  0.72885643256142265E-02
  0.21090667825837489E+02  0.55478036801053631E-02  0.12236527395005469E-02
  0.39396203664884460E+02  0.40345939799325140E-02  0.20539523751348435E-01
  0.40681386846576615E+02  0.47353675272032075E-01  0.16589091344374959E+00
  0.43189776336842250E+02  0.27009655135835309E-01  0.15400158048636553E+00
  0.75368651322655369E+01  0.23301309637409399E-01  0.74815467261495601E-02
  0.10658932003905608E+02  0.43588363702126681E-01  0.93906370565466895E-02
  0.18688141847128794E+02  0.33071422544645713E-02  0.92693971969447285E-03
  0.40242450886025566E+02  0.59154581153964105E-02  0.22821889661732903E-01
  0.40764325407276019E+02  0.79767734455360700E-01  0.26468357763391065E+00
  0.43220857934343357E+02  0.23769545791543844E-01  0.12335440643006526E+00
  0.65822537593925992E+01  0.81740649550587092E-02  0.28194311952865403E-02
  0.90923542598688751E+01  0.65175590492001292E-01  0.17190691115413111E-01
  0.16724208816171835E+02  0.22330882815034935E-02  0.71107165547475344E-03
  0.40773542266240028E+02  0.86494239914087015E-01  0.28869377089178899E+00
  0.40843831987667208E+02  0.99850385599274144E-01  0.32153000323707248E+00
  0.43412776880566796E+02  0.11381538760127473E-01  0.48413213790201755E-01
  0.56825907138055509E+01  0.45056852473316610E-02  0.16374994183558553E-02
  0.69802932291007682E+01  0.11473090892593265E-01  0.38093038686889714E-02
  0.15115525514518801E+02  0.17490499187808044E-02  0.58778730761809028E-03
  0.40902142719383185E+02  0.10555047152581551E+00  0.34099384371008257E+00
  0.40975677376880242E+02  0.11991301076300831E+00  0.40578573558466563E+00
  0.43699472785750999E+02  0.58734693251834428E-02  0.17811611663970557E-01
  0.85140628263760387E+01  0.39493166599320458E-01  0.10507308905087926E-01
  0.85140628263761045E+01  0.39501158254883553E-01  0.10509127964115255E-01
  0.18304217594613942E+02  0.29593783847713588E-02  0.93535863270683274E-03
  0.40511706585431945E+02  0.23072194547034446E-01  0.91503486448109711E-01
  0.40511706585431952E+02  0.22788954773152216E-01  0.90376145617443518E-01
  0.43725038233519065E+02  0.59135641606552890E-02  0.17543228199683431E-01
  0.87845844218772715E+01  0.48877655541067565E-01  0.12231564757988606E-01
  0.91479146145245682E+01  0.72640333265516721E-01  0.17161113411115880E-01
  0.20469721026807186E+02  0.45872170009092200E-02  0.12647343765577190E-02
  0.40482726555419823E+02  0.17527573766450533E-01  0.71267285507631992E-01
  0.40490881165944685E+02  0.19150053363189704E-01  0.78840901080776390E-01
  0.43212539512938108E+02  0.27185587219828385E-01  0.12422941339988126E+00
  0.89542567296978479E+01  0.57649125837249807E-01  0.13985491201347322E-01
  0.10240731476355577E+02  0.52441307397614149E-01  0.10939095432520866E-01
  0.22468146213794686E+02  0.72346470072568014E-02  0.16306983463717046E-02
  0.40220993984481595E+02  0.56039400774807891E-02  0.22772647322055493E-01
  0.40606070017738489E+02  0.29933299620768378E-01  0.12250385328773666E+00
  0.42630533973356272E+02  0.18879617504029705E-01  0.99934080055363944E-01
  0.91165078941074196E+01  0.69403749850431157E-01  0.16593060309704463E-01
  0.11488560074420720E+02  0.36129674507435885E-01  0.67166384366555577E-02
  0.24188378147669507E+02  0.11795948092544235E-01  0.19689617891277748E-02
  0.39300566810033104E+02  0.40586185434046103E-02  0.21338748065920982E-01