 -0.13709608931068145E-06  0.24141738412316381E-05  0.10108112075914931E-05
  0.92433049156287272E-06  0.28186709922820036E-05  0.11796127769977454E-05
  0.12683357170269080E-05  0.44740706101137895E-05  0.18721630999060844E-05
  0.41099732667620366E+02  0.59266580269109415E-01  0.17740014529661560E+00
  0.41099732667620380E+02  0.59888952734433828E-01  0.17930368112869996E+00
  0.41099732667620401E+02  0.60936212427441058E-01  0.18224731545629183E+00
  0.27932333692487221E+01  0.90019256568067772E-03  0.36799267761282797E-03
  0.27932333692488878E+01  0.87514905832581085E-03  0.35745823215856083E-03
  0.66714437995523852E+01  0.81873847164049465E-02  0.30663755703566439E-02
  0.41071737831994234E+02  0.78341383374394002E-01  0.24032433847415641E+00
  0.41071737831994234E+02  0.76932660167745595E-01  0.23690338311900588E+00
  0.44116284831840410E+02  0.89887605544745480E-02  0.22076272990817197E-01
  0.51030361498594576E+01  0.33912221593770798E-02  0.12668998560967843E-02
  0.51030361498595207E+01  0.34047653014430347E-02  0.12723448448390235E-02
  0.12953500857821384E+02  0.30831443421263382E-01  0.78072907858241858E-02
  0.40961406016648034E+02  0.13679157451763477E+00  0.44583359745583689E+00
  0.40961406016648034E+02  0.13670221715845909E+00  0.44589149420789664E+00
  0.44014228665768989E+02  0.37699901612281285E-02  0.10224185483440382E-01
  0.65923130783661117E+01  0.80207804112028356E-02  0.27285845609304532E-02
  0.65923130783661845E+01  0.81051501048483559E-02  0.27625849959591305E-02
  0.18686707758693817E+02  0.33573222126233723E-02  0.96454076988196542E-03
  0.40826914471099499E+02  0.11316128316690392E+00  0.36633549002597371E+00
  0.40826914471099521E+02  0.11088938670847753E+00  0.35852102690233739E+00
  0.43258276310096477E+02  0.19569556362898838E-01  0.87233440770910567E-01
  0.72949177796101488E+01  0.17545608997657794E-01  0.56360277826170667E-02
  0.72949177796102056E+01  0.16482894087908203E-01  0.52984707856676130E-02
  0.23665628167605572E+02  0.10528684838989411E-01  0.17823889092092083E-02
  0.40847867253061168E+02  0.10047158426662793E+00  0.33638548084742853E+00
  0.40847867253061175E+02  0.96676732004885205E-01  0.32338671524375928E+00
  0.41688381923538486E+02  0.44958193996520865E-02  0.24329594467545308E-01
  0.75650810924244114E+01  0.30184766336862061E-01  0.95738095639953547E-02
  0.75650810924244452E+01  0.28472932472849814E-01  0.90322244639554506E-02
  0.27323415841027078E+02  0.31709242852598143E-01  0.17482601097804822E-02
  0.39873250341360709E+02  0.25345433299249678E-02  0.19785544604218729E-01
  0.41034414033619996E+02  0.84597394819404551E-01  0.30538063418839528E+00
  0.41034414033620010E+02  0.86394403917434831E-01  0.30820756237944674E+00
  0.76469346245982406E+01  0.23911436259273322E+12  0.76882010831820694E+11
  0.76469346245982921E+01  0.49777770628042700E+12  0.16004957038600598E+12
  0.28754351784299775E+02  0.27286044036990604E+12  0.11128414350029997E+11
  0.38996639081948508E+02  0.13883030718526964E+11  0.34040158430258191E+12
  0.41147667311100655E+02  0.12902157083554922E+13  0.40127606363654868E+13
  0.41147667311100669E+02  0.36694614832863696E+12  0.11412564969898811E+13
  0.75650810924244141E+01  0.30171019638180856E-01  0.95694813995213356E-02
  0.75650810924244496E+01  0.28486679171531224E-01  0.90365526284295131E-02
  0.27323415841027089E+02  0.31709242852597977E-01  0.17482601097804700E-02
  0.39873250341360723E+02  0.25345433299249509E-02  0.19785544604218486E-01
  0.41034414033620010E+02  0.85690429195546203E-01  0.30698498043624611E+00
  0.41034414033620010E+02  0.85301369541339753E-01  0.30660321613177238E+00
  0.72949177796101559E+01  0.17518293816342245E-01  0.56273636125425963E-02
  0.72949177796102056E+01  0.16510209269223839E-01  0.53071349557421103E-02
  0.23665628167605576E+02  0.10528684838989404E-01  0.17823889092092075E-02
  0.40847867253061168E+02  0.96588659716586436E-01  0.32308026768952264E+00
  0.40847867253061182E+02  0.10055965655492309E+00  0.33669192840165402E+00
  0.41688381923538500E+02  0.44958193996521168E-02  0.24329594467545627E-01
  0.65923130783661250E+01  0.80225914758420627E-02  0.27295100468854908E-02
  0.65923130783662005E+01  0.81033390402093022E-02  0.27616595100041462E-02
  0.18686707758693814E+02  0.33573222126233723E-02  0.96454076988196607E-03
  0.40826914471099492E+02  0.11143165476128072E+00  0.36038514528180321E+00
  0.40826914471099506E+02  0.11261901511411258E+00  0.36447137164654442E+00
  0.43258276310096477E+02  0.19569556362898907E-01  0.87233440770910622E-01
  0.51030361498594612E+01  0.33881292900984289E-02  0.12657463576058532E-02
  0.51030361498595216E+01  0.34078581707216974E-02  0.12734983433299600E-02
  0.12953500857821350E+02  0.30831443421262875E-01  0.78072907858240705E-02
  0.40961406016648027E+02  0.13676861964193907E+00  0.44585079708355241E+00
  0.40961406016648048E+02  0.13672517203415119E+00  0.44587429458016709E+00
  0.44014228665768997E+02  0.37699901612280140E-02  0.10224185483440069E-01
  0.27932333692487230E+01  0.90541496322847897E-03  0.37017236545362601E-03
  0.27932333692488873E+01  0.86992666077801025E-03  0.35527854431776284E-03
  0.66714437995523008E+01  0.81873847164045128E-02  0.30663755703564878E-02
  0.41071737831994227E+02  0.76757186773082339E-01  0.23647999796329480E+00
  0.41071737831994234E+02  0.78516856769058646E-01  0.24074772362987282E+00
  0.44116284831840396E+02  0.89887605544756253E-02  0.22076272990819903E-01
  0.40345302208223828E+01  0.15137755228832237E-02  0.59839478820178176E-03
  0.40345302208223899E+01  0.14882788643902608E-02  0.58695032271463814E-03
  0.66662003763578994E+01  0.81066910739733631E-02  0.30713701373790091E-02
  0.41097004918639549E+02  0.61015415479956397E-01  0.18925499065901727E+00
  0.41097004918639563E+02  0.62310631933834744E-01  0.19288650867680535E+00
  0.44075059318069776E+02  0.12390183554221447E-01  0.29876990528045752E-01
  0.57383487188169751E+01  0.50574996822588389E-02  0.18547024703376204E-02
  0.58645139289493313E+01  0.51120325902106406E-02  0.18428150856006395E-02
  0.11532845588551947E+02  0.30023602077357433E-01  0.81542045719821751E-02
  0.40968211760613684E+02  0.12998544249384578E+00  0.43348823504617928E+00
  0.41053027192444098E+02  0.76512750090240111E-01  0.24915368733159188E+00
  0.43988808941671437E+02  0.44281966161551231E-02  0.11717993171563698E-01
  0.71388055508678407E+01  0.13181896982285776E-01  0.42505031238466292E-02
  0.73459299754775040E+01  0.17291706618782311E-01  0.56581004579514095E-02
  0.16917195586847942E+02  0.22458993299986898E-02  0.71168891914671114E-03
  0.40770364321473394E+02  0.88621135351805172E-01  0.29943792051642437E+00
  0.40951455133081119E+02  0.13468176901438367E+00  0.45401004416805713E+00
  0.43442029417307054E+02  0.10080049945280688E-01  0.39950715269469729E-01
  0.77458657867160801E+01  0.23185344117661495E-01  0.70276840777913699E-02
  0.84300504455011698E+01  0.34544733940208933E-01  0.10188993903929229E-01
  0.21823680072524109E+02  0.65029884338253440E-02  0.14037544079322775E-02
  0.40580826378889505E+02  0.29053518651815952E-01  0.10284223781786797E+00
  0.40764226620950261E+02  0.81290452431744889E-01  0.28428893974564268E+00
  0.42429706552017663E+02  0.13479537003104166E-01  0.74963500001551706E-01
  0.80015552904716092E+01  0.29976737067314976E-01  0.90262295676767513E-02
  0.89777981837807932E+01  0.55455612584211063E-01  0.15277385599979850E-01
  0.25734401833369425E+02  0.23857183835523998E-01  0.23321640078306947E-02
  0.39591644895490191E+02  0.42165906727937618E-02  0.22858426321683140E-01
  0.40968863355774559E+02  0.12236697650186139E+00  0.44576707322540954E+00
  0.41757930754083368E+02  0.47930683533266242E-02  0.24979395575989279E-01
  0.81286731509100836E+01  0.31501886839589606E-01  0.95251577421979535E-02
  0.91845855581732376E+01  0.64588174812389876E-01  0.17133462291287236E-01
  0.27850840915070712E+02  0.26969688270273413E-01  0.10206494769373774E-02
  0.38591964187781080E+02  0.27704563350857974E-02  0.29854972902638097E-01
  0.41096462586506114E+02  0.56343903759809008E-01  0.19899805965755774E+00
  0.41712553209879061E+02  0.49930479059053269E-02  0.24062756029739413E-01
  0.80828645503217604E+01  0.31023560998246918E-01  0.94302440009873464E-02
  0.91288623725791425E+01  0.61464518733098987E-01  0.16323734804960091E-01
  0.27412959913614252E+02  0.31276759273640341E-01  0.14738050838194057E-02
  0.38780179517633862E+02  0.28840369249242817E-02  0.26117047024912691E-01
  0.40993784312625550E+02  0.10449001902684245E+00  0.37607659737640875E+00
  0.41805265304773449E+02  0.50969664516985523E-02  0.24800102573430457E-01
  0.78152697304724343E+01  0.25113116027173657E-01  0.77774927974141473E-02
  0.89373971561311603E+01  0.55275227707429528E-01  0.14977186756871493E-01
  0.24582522516901403E+02  0.13722287384955508E-01  0.18844462867189790E-02
  0.39823133926769607E+02  0.36659602267864596E-02  0.18380348055976894E-01
  0.40828625941431753E+02  0.10723790298007348E+00  0.36074695509071442E+00
  0.42074319278607653E+02  0.53876544102113271E-02  0.29459567093031554E-01
  0.71635225454342466E+01  0.13693338127398928E-01  0.45103071155833015E-02
  0.86181645482939686E+01  0.41337687253686008E-01  0.11653719357484231E-01
  0.20216489705030181E+02  0.44194293451413191E-02  0.11093860186301373E-02
  0.40567399992575368E+02  0.28473429795195314E-01  0.10102484417901489E+00
  0.40801208708672384E+02  0.11520750152815858E+00  0.37576719097990741E+00
  0.42866400879258904E+02  0.23664326120314796E-01  0.12266337812271297E+00
  0.58234541453867443E+01  0.50265954707011638E-02  0.18297158101766508E-02
  0.77558421165008760E+01  0.23182366231486312E-01  0.72597506477470866E-02
  0.15133807881510373E+02  0.16995540380965372E-02  0.58252800790779314E-03
  0.40892868308449309E+02  0.93837972514045714E-01  0.30041436542384603E+00
  0.41018114452142548E+02  0.91588983464757287E-01  0.31283907026652913E+00
  0.43595665397009270E+02  0.67755534975911915E-02  0.20927225089591509E-01
  0.39171564026263557E+01  0.14174507575941025E-02  0.56032816749701313E-03
  0.58600974605800031E+01  0.51820693711939819E-02  0.18995572890269871E-02
  0.10065725615994676E+02  0.54103162120466938E-01  0.15831223591545256E-01
  0.40991040517849399E+02  0.11507054583484572E+00  0.36506480384093409E+00
  0.41486010734530538E+02  0.44577455660680925E-02  0.15813318650579857E-01
  0.43679665052898017E+02  0.64578122268392942E-02  0.17868380115001730E-01
  0.71495876723873373E+01  0.13619945594081136E-01  0.43925748772080117E-02
  0.71495876723873852E+01  0.13571106115097641E-01  0.43720248374710408E-02
  0.13159291974692747E+02  0.33036193181572283E-01  0.84970084227613835E-02
  0.40823691972834574E+02  0.11118729556175938E+00  0.37088849567119225E+00
  0.40823691972834588E+02  0.11258307213859285E+00  0.37581280975819553E+00
  0.44091599202117749E+02  0.75883211648403856E-02  0.19179134134884993E-01
  0.80667468329085992E+01  0.31388279068832604E-01  0.90742069939425424E-02
  0.85368434922497212E+01  0.38150980590967123E-01  0.10669096188141710E-01
  0.16858633006524808E+02  0.21762539328274593E-02  0.72290980507310680E-03
  0.40622439010980685E+02  0.31099846969453900E-01  0.11573121183576277E+00
  0.40741887218842415E+02  0.63544137826748961E-01  0.22568876482479625E+00
  0.43661799419251111E+02  0.65026593161292261E-02  0.19721737530380094E-01
  0.85094513593976515E+01  0.38375304293030009E-01  0.10386050731150287E-01
  0.10101295438320081E+02  0.57812254597867992E-01  0.13249916300501981E-01
  0.20666988514262481E+02  0.48870000758555587E-02  0.12310182496614224E-02
  0.40432864700888686E+02  0.11522285952475567E-01  0.41999287464928425E-01
  0.40634636787983652E+02  0.32233246721249866E-01  0.12370803452021553E+00
  0.42816634371244007E+02  0.23679667438449230E-01  0.12494055164867721E+00
  0.87601490990607012E+01  0.47949683642076066E-01  0.12842437736774157E-01
  0.11290082812255390E+02  0.39577079433451297E-01  0.80509893100002266E-02
  0.24002384120469365E+02  0.11857403502329314E-01  0.18211571434648868E-02
  0.39221783249771818E+02  0.43817833592385514E-02  0.22639221146142578E-01
  0.40864316122321291E+02  0.84240124478958928E-01  0.31324469735316768E+00
  0.42458340101408957E+02  0.13191779565253969E-01  0.79629478331617959E-01
  0.89510375752227542E+01  0.54736319530457461E-01  0.14599250103405848E-01
  0.11877656373794949E+02  0.27911821474471125E-01  0.56716643274869159E-02
  0.26254023168264400E+02  0.37580821812063299E-01  0.26644016127478029E-02
  0.37984224276888938E+02  0.36792121923226481E-02  0.36844346287823286E-01
  0.40989689096904968E+02  0.10279265465608411E+00  0.39456169553285464E+00
  0.42495400547996525E+02  0.13538630303071711E-01  0.81245466000466671E-01
  0.89588177082989393E+01  0.54725202258650539E-01  0.14669502291908476E-01
  0.11874540250023525E+02  0.28057228868920790E-01  0.56416109689237251E-02
  0.26623716343427738E+02  0.40985296935823298E-01  0.23108679444866702E-02
  0.37660069693518651E+02  0.28617054041596983E-02  0.36442944529239921E-01
  0.40862574847297424E+02  0.85881675816894612E-01  0.31292864641418661E+00
  0.42677464099433664E+02  0.17960398296111457E-01  0.10663438091868251E+00
  0.87475114467406545E+01  0.46828567988102768E-01  0.12991084028101797E-01
  0.11550219498373025E+02  0.33108484353703074E-01  0.65069254671528531E-02
  0.24841212061408218E+02  0.15294909372500791E-01  0.17276747567725528E-02
  0.38277872074658966E+02  0.37669084354874285E-02  0.32733564292080554E-01
  0.40692139703145287E+02  0.46192034662539287E-01  0.16847425003767783E+00
  0.42918007295419841E+02  0.21631464056448873E-01  0.12951899748965148E+00
  0.82607089249344892E+01  0.32471052721841753E-01  0.97001496862834588E-02
  0.11234305370043948E+02  0.41544452092749054E-01  0.81573449024650961E-02
  0.21528210223872065E+02  0.62352435939957368E-02  0.13098242436090331E-02
  0.39352474587463178E+02  0.44990686045784864E-02  0.23213693301393303E-01
  0.40683949501204310E+02  0.45142191679017847E-01  0.15856440794091037E+00
  0.43126453186322522E+02  0.29074806160815741E-01  0.16675879706180338E+00
  0.72386937015772048E+01  0.15609665676807360E-01  0.51508508445302359E-02
  0.10276265232135017E+02  0.50690842599319698E-01  0.11523385217691166E-01
  0.17930435894850181E+02  0.28648546223275081E-02  0.84897138953702234E-03
  0.40479133095548129E+02  0.16446239296692280E-01  0.60527631858732479E-01
  0.40792780846200721E+02  0.11119601644418153E+00  0.36158129325152794E+00
  0.43252561579358726E+02  0.18981628765705097E-01  0.92653586858045117E-01
  0.58234541453867967E+01  0.50265954707012428E-02  0.18297158101766764E-02
  0.77417326184510200E+01  0.22744671878114311E-01  0.71271745964912158E-02
  0.15140066186638114E+02  0.17004029513292742E-02  0.58282210726322509E-03
  0.40892868308449287E+02  0.93837972514036638E-01  0.30041436542381289E+00
  0.41002145426011715E+02  0.10418901762208729E+00  0.35440440817566937E+00
  0.43611019535668120E+02  0.67744408695646144E-02  0.20813505222767814E-01
  0.86739581480188885E+01  0.44964481406238335E-01  0.11589995763935558E-01
  0.86739581480189170E+01  0.44951782937763300E-01  0.11579400281488395E-01
  0.19371093498807173E+02  0.36179490596078812E-02  0.10888028363439520E-02
  0.40479528400683343E+02  0.15523862173015062E-01  0.62709916873010835E-01
  0.40479528400683343E+02  0.15816909421157599E-01  0.63579243373923136E-01
  0.43547714982112289E+02  0.67201047319041425E-02  0.21355890063664791E-01
  0.89519158737217008E+01  0.56469995879361572E-01  0.13717839580162438E-01
  0.96696085114774579E+01  0.64685813545655724E-01  0.14124683731813515E-01
  0.22275807924549728E+02  0.67827943427878163E-02  0.16107980031531105E-02
  0.40386759041771377E+02  0.89229957492306493E-02  0.36175418806472952E-01
  0.40548627593721250E+02  0.23531982363439292E-01  0.98367671948802901E-01
  0.42713901952167838E+02  0.22442186797442875E-01  0.11169928042994100E+00
  0.91723154548743189E+01  0.66399415600408476E-01  0.15707969400099390E-01
  0.11418479930641048E+02  0.37047731341305117E-01  0.68013950768718899E-02
  0.24646058364221915E+02  0.13345027548697852E-01  0.21153165305690075E-02
  0.39232647297437204E+02  0.44200173884071207E-02  0.22648870407289783E-01
  0.40803091415972837E+02  0.10219392292371585E+00  0.40283042445065681E+00
  0.42440677353851726E+02  0.12791811353562764E-01  0.78631926695908502E-01
  0.93838616909334274E+01  0.10330072807759375E+00  0.24093298263481531E-01
  0.12936066313006643E+02  0.35206042195696181E-01  0.58194581676879369E-02
  0.26336100670991247E+02  0.39526225315126735E-01  0.30186324565274029E-02
  0.37555987927792273E+02  0.29632312580681183E-02  0.33751557177547811E-01
  0.40924690898594761E+02  0.11632402311142460E+00  0.47523114278702633E+00
  0.42742833306183257E+02  0.20195812149525118E-01  0.12850056845510366E+00
  0.94253065159998073E+01  0.12061333274449321E+00  0.28083598006254790E-01
  0.13500659758366151E+02  0.34775993947072537E-01  0.54355882802589331E-02
  0.26912760157959436E+02  0.38755366068477258E-01  0.16502824413243159E-02
  0.36701182082042919E+02  0.15662109447775745E-02  0.39271873247632531E-01
  0.40766877390212521E+02  0.77440296975167425E-01  0.30394326560984686E+00
  0.43067985368789074E+02  0.24555012195804311E-01  0.16125899912865785E+00
  0.92892331587678747E+01  0.94874342639001311E-01  0.22650952705792891E-01
  0.13206259682696080E+02  0.38942396588686111E-01  0.60940474186800360E-02
  0.25807290118062848E+02  0.27009242637114281E-01  0.18548921588941655E-02
  0.37007291761083913E+02  0.21464010541153138E-02  0.39314906058124217E-01
  0.40559681551694467E+02  0.25114000825342812E-01  0.10060959572870906E+00
  0.43341564406967251E+02  0.10535173533171313E-01  0.63881758956329568E-01
  0.89882124408746584E+01  0.55346949442877540E-01  0.14652347115856109E-01
  0.12615309022321995E+02  0.30682891728234976E-01  0.52006316515310737E-02
  0.23522195763445914E+02  0.10558101151460133E-01  0.15212139577316865E-02
  0.37983983981784220E+02  0.38913696537440251E-02  0.35972913059500830E-01
  0.40545165537460647E+02  0.24635645919716717E-01  0.94109253144741695E-01
  0.43433217493383125E+02  0.86330304884314011E-02  0.46014245018830023E-01
  0.82607089249346046E+01  0.32471052721842752E-01  0.97001496862836392E-02
  0.11230851921058409E+02  0.41604874235711124E-01  0.81706600591860638E-02
  0.21514983029531631E+02  0.62184849167092830E-02  0.13078596138651644E-02
  0.39357628171999686E+02  0.45008094076540934E-02  0.23231751178431778E-01
  0.40683949501204296E+02  0.45142191679013996E-01  0.15856440794089768E+00
  0.43129250494536471E+02  0.29059401591414003E-01  0.16646393436454654E+00
  0.71635225454343177E+01  0.13693338127400791E-01  0.45103071155838887E-02
  0.85143760843113103E+01  0.37445320520419989E-01  0.10620094696863182E-01
  0.20282883272755058E+02  0.44857630394268223E-02  0.11240519314649729E-02
  0.40391985634956143E+02  0.98603032568159981E-02  0.35770213115146839E-01
  0.40801208708672412E+02  0.11520750152816737E+00  0.37576719097993611E+00
  0.43021146255977399E+02  0.26513239639724347E-01  0.13819299532864815E+00
  0.91112792443191086E+01  0.64444383097292043E-01  0.14640907239180679E-01
  0.91112792443191317E+01  0.64431441053386287E-01  0.14656598023215738E-01
  0.25047447495664098E+02  0.14564587093931346E-01  0.23884821493585402E-02
  0.40635923831498907E+02  0.30207451223581046E-01  0.12953266911610037E+00
  0.40635923831498928E+02  0.30657712653942796E-01  0.13108717679825488E+00
  0.41759763749990363E+02  0.52208039037685847E-02  0.24724412656250486E-01
  0.92504738385741980E+01  0.11312819416105750E+00  0.24744675383383215E-01
  0.99689952308690621E+01  0.65184462702225193E-01  0.13307623661417314E-01
  0.27288095198152352E+02  0.29677558361928178E-01  0.22942659787194477E-02
  0.39520489630120686E+02  0.43827140037885712E-02  0.23505969294026093E-01
  0.40864991281456703E+02  0.77753742865453904E-01  0.32463414230669979E+00
  0.41633960356189625E+02  0.41964934309689271E-02  0.23370113791942076E-01
  0.94178534669663136E+01  0.12162509041869425E+00  0.26919718606151485E-01
  0.11777062256668998E+02  0.29501217598369565E-01  0.52138777096453707E-02
  0.28582676344608569E+02  0.15606561576200863E-01  0.53010052105638167E-03
  0.37419341957019995E+02  0.24099549184416146E-02  0.33973521875773398E-01
  0.40976427255853160E+02  0.10373047071362158E+00  0.44752471181970921E+00
  0.42319007113861012E+02  0.94205252295203844E-02  0.59512453336117106E-01
  0.94865825839612352E+01  0.15666832340362943E+00  0.34335398655654492E-01
  0.13332488982502211E+02  0.38308015431193630E-01  0.57575944405816072E-02
  0.28787180850771524E+02  0.15746784678939370E-01  0.19338363422000558E-03
  0.35991326778253097E+02  0.51936954354918092E-03  0.43808331303679796E-01
  0.40827129384282536E+02  0.95307404498689519E-01  0.38729578990897201E+00
  0.42904650702951180E+02  0.19722514326548229E-01  0.13308777258534102E+00
  0.94446935258002096E+01  0.11571743242528364E+00  0.26060233594227506E-01
  0.13773064508895979E+02  0.52321189350566413E-01  0.73766424830681351E-02
  0.27610897323036699E+02  0.32215375997894355E-01  0.69726718578584418E-03
  0.36034688544035767E+02  0.64029444044907599E-03  0.44355316845117232E-01
  0.40606312759090677E+02  0.27066976010619779E-01  0.11344315528972647E+00
  0.43276676627345502E+02  0.13876324745489553E-01  0.88938027738881528E-01
  0.92892331587678445E+01  0.94874342638999146E-01  0.22650952705792333E-01
  0.13228751539440864E+02  0.38945599867308785E-01  0.60822061663367453E-02
  0.25782031503015521E+02  0.26537466588890953E-01  0.18384649345652814E-02
  0.37006499807694730E+02  0.21458298002331347E-02  0.39319252096928631E-01
  0.40559681551694439E+02  0.25114000825340970E-01  0.10060959572870119E+00
  0.43350413181955879E+02  0.10116753736843280E-01  0.60997229360329967E-01
  0.87475114467406456E+01  0.46828567988102289E-01  0.12991084028101662E-01
  0.11595418273257929E+02  0.31969932656941966E-01  0.62952519533011628E-02
  0.24781878499969203E+02  0.15028650948520064E-01  0.17176774074133096E-02
  0.38272598747434486E+02  0.37551667590007849E-02  0.32855648590308539E-01
  0.40692139703145301E+02  0.46192034662543041E-01  0.16847425003769118E+00
  0.42944815590626895E+02  0.22127509364547875E-01  0.13159436291649540E+00
  0.78152697304726209E+01  0.25113116027179246E-01  0.77774927974158404E-02
  0.89007861059323066E+01  0.54417336246098451E-01  0.14797532331615902E-01
  0.24605577248301039E+02  0.13797366887883813E-01  0.18896195914705634E-02
  0.39822423085705786E+02  0.36865564727943650E-02  0.18352570738101651E-01
  0.40828625941431781E+02  0.10723790298005824E+00  0.36074695509066346E+00
  0.42069276369880868E+02  0.53177170669824695E-02  0.29271674049217052E-01
  0.92545724149971456E+01  0.11616816087514650E+00  0.25203435601040752E-01
  0.92545724149971633E+01  0.11669199367600827E+00  0.25301650896141250E-01
  0.29800860791952729E+02  0.85094496123995309E-02  0.27336370132654945E-03
  0.39089031573017948E+02  0.29344776495710150E-02  0.24633212696681544E-01
  0.41030158276965302E+02  0.70441523458276062E-01  0.31128750401738614E+00
  0.41030158276965302E+02  0.69639241121570647E-01  0.30707846169539516E+00
  0.93186550581752456E+01  0.10245820967587921E+00  0.22526697739133177E-01
  0.10051626835705630E+02  0.61912078608062089E-01  0.12614452853631310E-01
  0.31153725138393071E+02  0.57019967028920969E-02  0.44884860051801728E-04
  0.37349095762923355E+02  0.12776132222552055E-02  0.38380672780226943E-01
  0.41118573462710430E+02  0.30050874225126423E-01  0.12953264478203139E+00
  0.41571349417464972E+02  0.39273413295067543E-02  0.21117825205648845E-01
  0.94158695816282894E+01  0.12151717757126000E+00  0.26600198096827406E-01
  0.11845624043685737E+02  0.29052938551866820E-01  0.51061337025190843E-02
  0.30734672772211397E+02  0.69330411003276230E-02  0.46012326296850563E-05
  0.36054112484771515E+02  0.10763103225782150E-03  0.48992117599052740E-01
  0.41009338807522631E+02  0.82356731080128878E-01  0.36115751263140822E+00
  0.42322132021028736E+02  0.94718835320570117E-02  0.60131284896486697E-01
  0.94865825839612246E+01  0.15666832340363676E+00  0.34335398655656130E-01
  0.13336830397999691E+02  0.38243655661080692E-01  0.57465523707396328E-02
  0.28797005926561308E+02  0.15689089759913573E-01  0.19014830649451213E-03
  0.35987496850211976E+02  0.51324851851529884E-03  0.43697199240467860E-01
  0.40827129384282543E+02  0.95307404498686021E-01  0.38729578990895847E+00
  0.42899920443532096E+02  0.19688084079481725E-01  0.13293675043616482E+00
  0.94253065159998055E+01  0.12061333274449330E+00  0.28083598006254786E-01
  0.13488550295190132E+02  0.34964045398932837E-01  0.54692597309615046E-02
  0.26948382290158513E+02  0.38702498085568714E-01  0.16097329502059196E-02
  0.36693810242995816E+02  0.15492849957641245E-02  0.39251354065557638E-01
  0.40766877390212521E+02  0.77440296975167383E-01  0.30394326560984697E+00
  0.43055784697356557E+02  0.23884729477787733E-01  0.15699689302065475E+00
  0.89588177082989660E+01  0.54725202258650817E-01  0.14669502291908531E-01
  0.11873680815936821E+02  0.28059557224651876E-01  0.56425406400897483E-02
  0.26612589587957601E+02  0.41204222362889592E-01  0.23351639701750951E-02
  0.37661735184278051E+02  0.28665182539576780E-02  0.36463136062080417E-01
  0.40862574847297438E+02  0.85881675816889741E-01  0.31292864641417129E+00
  0.42683172932402307E+02  0.18290949306129792E-01  0.10854698686052326E+00
  0.80828645503218119E+01  0.31023560998247532E-01  0.94302440009874731E-02
  0.91677664943644270E+01  0.62820315429225129E-01  0.16606914698692337E-01
  0.27356277655262787E+02  0.32071708853462604E-01  0.15415250702058433E-02
  0.38765445638413802E+02  0.28809050942375809E-02  0.26361115484383333E-01
  0.40993784312625543E+02  0.10449001902684668E+00  0.37607659737642735E+00
  0.41847525433094376E+02  0.51039288313644215E-02  0.24785179487388894E-01
  0.92649847966119800E+01  0.25129240421866702E+12  0.52340623032017838E+11
  0.92649847966120120E+01  0.70622191850185135E+11  0.14825502195743910E+11
  0.32349498402940625E+02  0.35808879191751849E+12  0.53733445217911895E-34
  0.37205764589577257E+02  0.15974012616979977E-33  0.28546290122023623E+13
  0.41199366162526182E+02  0.94439109385765320E+11  0.16385693065492480E+12
  0.41199366162526189E+02  0.12421575345194923E+12  0.99521108398626099E+12
  0.93186550581752385E+01  0.10245820967587914E+00  0.22526697739133142E-01
  0.10052260129101089E+02  0.61885185742869109E-01  0.12608503455363244E-01
  0.31153492024661777E+02  0.57023729853668157E-02  0.44895922457047023E-04
  0.37349085654041410E+02  0.12775445069682413E-02  0.38381087557466130E-01
  0.41118573462710444E+02  0.30050874225114772E-01  0.12953264478198273E+00
  0.41571380065053255E+02  0.39276653131070857E-02  0.21118567650783585E-01
  0.94178534669663048E+01  0.12162509041869203E+00  0.26919718606151024E-01
  0.11778603594766329E+02  0.29486926363875312E-01  0.52111452371702456E-02
  0.28581542156734969E+02  0.15617949108349412E-01  0.53091783399168973E-03
  0.37420632057644767E+02  0.24123885615591261E-02  0.33968496597259416E-01
  0.40976427255853167E+02  0.10373047071361663E+00  0.44752471181968584E+00
  0.42318203408510023E+02  0.93987211394134205E-02  0.59371882750582437E-01
  0.93838616909334451E+01  0.10330072807760188E+00  0.24093298263483436E-01
  0.12917537505491113E+02  0.34878557383377091E-01  0.57784503433763491E-02
  0.26359480862204549E+02  0.40142581074299008E-01  0.30370215568874034E-02
  0.37549764912959176E+02  0.29439013834796075E-02  0.33691033284047781E-01
  0.40924690898594754E+02  0.11632402311141943E+00  0.47523114278700163E+00
  0.42739492122983123E+02  0.20084677819533006E-01  0.12785366344710605E+00
  0.89510375752227453E+01  0.54736319530457177E-01  0.14599250103405825E-01
  0.11837597324957434E+02  0.28076407633495608E-01  0.57134991482232934E-02
  0.26282077565676744E+02  0.38584045791383907E-01  0.27028932949059179E-02
  0.37975720198965867E+02  0.36652211162432830E-02  0.36925683935784499E-01
  0.40989689096904939E+02  0.10279265465610267E+00  0.39456169553292381E+00
  0.42496837280898220E+02  0.13550081159923276E-01  0.81263340315641377E-01
  0.81286731509100925E+01  0.31501886839589745E-01  0.95251577421979657E-02
  0.92089530947207408E+01  0.69747953542017252E-01  0.18392427104677221E-01
  0.27789629011282681E+02  0.27538614914250456E-01  0.10735096358660237E-02
  0.38581586263111966E+02  0.27796548536455569E-02  0.30045032781630607E-01
  0.41096462586506135E+02  0.56343903759789440E-01  0.19899805965748715E+00
  0.41757581951622996E+02  0.50927878316292816E-02  0.24467587299068134E-01
  0.92504738385741678E+01  0.11312819416103116E+00  0.24744675383377959E-01
  0.99682505382305209E+01  0.65209975834958425E-01  0.13313401563520941E-01
  0.27287513173548909E+02  0.29684275069086691E-01  0.22953673129523463E-02
  0.39520693610310978E+02  0.43827262439408215E-02  0.23503806185830176E-01
  0.40864991281456710E+02  0.77753742865452516E-01  0.32463414230669269E+00
  0.41634326505566868E+02  0.41979917554832826E-02  0.23380036153464897E-01
  0.91723154548744272E+01  0.66399415600419481E-01  0.15707969400101756E-01
  0.11414261528967675E+02  0.37171981687324621E-01  0.68235930738245743E-02
  0.24644314201285368E+02  0.13339471801426413E-01  0.21149030403371893E-02
  0.39230792496431839E+02  0.44137112980305133E-02  0.22642211173101796E-01
  0.40803091415972851E+02  0.10219392292371908E+00  0.40283042445066830E+00
  0.42444539300556663E+02  0.12859123532974000E-01  0.78979635897725178E-01
  0.87601490990607438E+01  0.47949683642077974E-01  0.12842437736774636E-01
  0.11278987468933295E+02  0.39830125362471797E-01  0.81046238659326086E-02
  0.24012082560664407E+02  0.11890629588839170E-01  0.18224474977378657E-02
  0.39218268653660346E+02  0.43703695167841639E-02  0.22624454392348219E-01